# vtk DataFile Version 3.0
Example structured points dataset
ASCII

DATASET STRUCTURED_POINTS
DIMENSIONS 151 151 2
ORIGIN 0 0 0
SPACING 0.005000 0.005000 0.005000

POINT_DATA 45602
SCALARS Transmembrane_Potential float 1
LOOKUP_TABLE default
24.394369
24.396033
24.401059
24.409500
24.421282
24.436267
24.454326
24.475322
24.499107
24.525521
24.554397
24.585559
24.618834
24.654048
24.691030
24.729614
24.769643
24.810963
24.853429
24.896907
24.941265
24.986382
25.032146
25.078449
25.125189
25.172277
25.219625
25.267149
25.314777
25.362439
25.410069
25.457604
25.504993
25.552183
25.599124
25.645769
25.692081
25.738022
25.783553
25.828639
25.873252
25.917366
25.960951
26.003978
26.046426
26.088278
26.129509
26.170095
26.210018
26.249265
26.287819
26.325659
26.362765
26.399126
26.434730
26.469561
26.503598
26.536825
26.569232
26.600810
26.631538
26.661395
26.690369
26.718450
26.745626
26.771875
26.797174
26.821511
26.844877
26.867255
26.888623
26.908955
26.928238
26.946461
26.963606
26.979647
26.994557
27.008319
27.020922
27.032345
27.042560
27.051536
27.059254
27.065701
27.070854
27.074683
27.077155
27.078245
27.077940
27.076217
27.073045
27.068388
27.062219
27.054522
27.045281
27.034466
27.022043
27.007987
26.992288
26.974939
26.955928
26.935236
26.912852
26.888790
26.863078
26.835746
26.806826
26.776361
26.744429
26.711141
26.676633
26.641053
26.604575
26.567423
26.529877
26.492270
26.454972
26.418392
26.382999
26.349339
26.318027
26.289730
26.265148
26.245024
26.230152
26.221373
26.219538
26.225479
26.239980
26.263777
26.297544
26.341857
26.397139
26.463611
26.541279
26.629914
26.729030
26.837825
26.955130
27.079369
27.208548
27.340248
27.471608
27.599324
27.719718
27.828916
27.923125
27.999307
28.054253
28.087355
28.098493
24.396032
24.397701
24.402740
24.411185
24.422955
24.437920
24.455954
24.476922
24.500676
24.527058
24.555898
24.587024
24.620261
24.655436
24.692379
24.730924
24.770914
24.812195
24.854623
24.898063
24.942383
24.987464
25.033193
25.079460
25.126167
25.173223
25.220538
25.268031
25.315629
25.363262
25.410863
25.458372
25.505734
25.552898
25.599814
25.646436
25.692724
25.738643
25.784152
25.829217
25.873810
25.917905
25.961471
26.004479
26.046910
26.088744
26.129958
26.170528
26.210436
26.249667
26.288207
26.326032
26.363124
26.399471
26.435063
26.469881
26.503905
26.537119
26.569515
26.601081
26.631797
26.661644
26.690606
26.718677
26.745842
26.772080
26.797370
26.821697
26.845053
26.867422
26.888780
26.909103
26.928377
26.946591
26.963727
26.979759
26.994660
27.008414
27.021008
27.032423
27.042629
27.051597
27.059307
27.065745
27.070891
27.074712
27.077175
27.078258
27.077944
27.076214
27.073034
27.068368
27.062191
27.054487
27.045238
27.034415
27.021984
27.007920
26.992213
26.974856
26.955837
26.935136
26.912744
26.888674
26.862954
26.835613
26.806684
26.776209
26.744268
26.710972
26.676454
26.640864
26.604375
26.567212
26.529655
26.492036
26.454726
26.418133
26.382726
26.349052
26.317727
26.289415
26.264817
26.244677
26.229789
26.220994
26.219144
26.225069
26.239554
26.263335
26.297088
26.341388
26.396657
26.463119
26.540777
26.629404
26.728514
26.837307
26.954610
27.078848
27.208028
27.339732
27.471098
27.598821
27.719224
27.828432
27.922652
27.998841
28.053798
28.086927
28.098080
24.401056
24.402739
24.407801
24.416237
24.427964
24.442867
24.460826
24.481711
24.505373
24.531656
24.560391
24.591408
24.624532
24.659592
24.696418
24.734847
24.774719
24.815884
24.858197
24.901524
24.945733
24.990706
25.036328
25.082491
25.129097
25.176054
25.223274
25.270674
25.318182
25.365728
25.413245
25.460671
25.507955
25.555042
25.601884
25.648433
25.694653
25.740505
25.785949
25.830951
25.875484
25.919520
25.963028
26.005981
26.048359
26.090142
26.131305
26.171826
26.211687
26.250873
26.289368
26.327150
26.364200
26.400507
26.436059
26.470838
26.504823
26.538001
26.570362
26.601893
26.632574
26.662387
26.691317
26.719357
26.746491
26.772697
26.797956
26.822254
26.845582
26.867922
26.889250
26.909545
26.928792
26.946980
26.964090
26.980094
26.994968
27.008697
27.021267
27.032657
27.042837
27.051779
27.059465
27.065879
27.071001
27.074797
27.077235
27.078294
27.077958
27.076204
27.072999
27.068309
27.062108
27.054381
27.045109
27.034262
27.021806
27.007718
26.991987
26.974607
26.955564
26.934837
26.912420
26.888325
26.862580
26.835214
26.806257
26.775754
26.743785
26.710462
26.675916
26.640294
26.603773
26.566577
26.528987
26.491334
26.453987
26.417355
26.381908
26.348193
26.316826
26.288470
26.263826
26.243638
26.228702
26.219860
26.217963
26.223841
26.238277
26.262012
26.295723
26.339984
26.395218
26.461647
26.539275
26.627880
26.726973
26.835755
26.953052
27.077288
27.206471
27.338185
27.469567
27.597311
27.717738
27.826975
27.921223
27.997428
28.052414
28.085613
28.096810
24.409496
24.411183
24.416236
24.424624
24.436268
24.451066
24.468903
24.489650
24.513162
24.539281
24.567844
24.598680
24.631619
24.666489
24.703123
24.741358
24.781037
24.822010
24.864134
24.907273
24.951298
24.996091
25.041536
25.087528
25.133967
25.180761
25.227821
25.275068
25.322427
25.369828
25.417204
25.464496
25.511648
25.558608
25.605326
25.651757
25.697862
25.743601
25.788937
25.833835
25.878268
25.922206
25.965619
26.008480
26.050770
26.092467
26.133547
26.173986
26.213769
26.252880
26.291301
26.329010
26.365990
26.402230
26.437716
26.472430
26.506352
26.539469
26.571771
26.603244
26.633868
26.663624
26.692501
26.720488
26.747570
26.773724
26.798931
26.823181
26.846461
26.868753
26.890033
26.910281
26.929483
26.947628
26.964692
26.980651
26.995482
27.009168
27.021697
27.033044
27.043181
27.052081
27.059727
27.066102
27.071183
27.074937
27.077334
27.078354
27.077979
27.076186
27.072940
27.068209
27.061969
27.054204
27.044893
27.034005
27.021508
27.007379
26.991610
26.974192
26.955107
26.934337
26.911878
26.887742
26.861956
26.834547
26.805544
26.774995
26.742980
26.709611
26.675017
26.639344
26.602769
26.565517
26.527873
26.490163
26.452755
26.416057
26.380542
26.346759
26.315323
26.286894
26.262173
26.241905
26.226890
26.217970
26.215995
26.221793
26.236150
26.259808
26.293448
26.337646
26.392820
26.459193
26.536774
26.625340
26.724407
26.833172
26.950459
27.074691
27.203880
27.335609
27.467018
27.594797
27.715266
27.824548
27.918845
27.995079
28.050126
28.083458
28.094732
24.421277
24.422952
24.427962
24.436267
24.447794
24.462449
24.480120
24.500679
24.523983
24.549879
24.578205
24.608793
24.641475
24.676083
24.712452
24.750420
24.789832
24.830540
24.872401
24.915281
24.959052
25.003594
25.048795
25.094549
25.140755
25.187323
25.234163
25.281197
25.328348
25.375548
25.422729
25.469832
25.516801
25.563584
25.610130
25.656396
25.702341
25.747924
25.793109
25.837862
25.882155
25.925956
25.969236
26.011971
26.054138
26.095715
26.136677
26.177004
26.216678
26.255683
26.294000
26.331608
26.368491
26.404638
26.440032
26.474655
26.508488
26.541521
26.573741
26.605132
26.635675
26.665353
26.694154
26.722068
26.749076
26.775157
26.800294
26.824476
26.847689
26.869914
26.891126
26.911309
26.930449
26.948531
26.965533
26.981429
26.996198
27.009826
27.022296
27.033584
27.043661
27.052502
27.060092
27.066411
27.071435
27.075131
27.077471
27.078435
27.078007
27.076158
27.072855
27.068067
27.061772
27.053954
27.044588
27.033644
27.021089
27.006905
26.991081
26.973608
26.954465
26.933636
26.911117
26.886925
26.861081
26.833611
26.804544
26.773931
26.741852
26.708419
26.673757
26.638011
26.601361
26.564033
26.526312
26.488522
26.451028
26.414238
26.378629
26.344751
26.313218
26.284687
26.259858
26.239478
26.224353
26.215323
26.213239
26.218925
26.233170
26.256722
26.290264
26.334373
26.389463
26.455760
26.533273
26.621788
26.720818
26.829559
26.946832
27.071060
27.200257
27.332011
27.463458
27.591285
27.711810
27.821159
27.915530
27.991809
28.046964
28.080510
28.091899
24.436261
24.437916
24.442864
24.451064
24.462448
24.476926
24.494390
24.514714
24.537759
24.563375
24.591402
24.621679
24.654038
24.688316
24.724350
24.761981
24.801056
24.841428
24.882956
24.925508
24.968956
25.013182
25.058073
25.103523
25.149435
25.195714
25.242274
25.289036
25.335924
25.382866
25.429799
25.476662
25.523398
25.569954
25.616281
25.662336
25.708076
25.753461
25.798453
25.843022
25.887135
25.930761
25.973872
26.016444
26.058453
26.099876
26.140688
26.180871
26.220406
26.259276
26.297460
26.334938
26.371698
26.407724
26.442999
26.477506
26.511227
26.544151
26.576265
26.607551
26.637991
26.667569
26.696275
26.724093
26.751006
26.776994
26.802041
26.826136
26.849263
26.871400
26.892527
26.912627
26.931686
26.949688
26.966609
26.982424
26.997116
27.010668
27.023063
27.034274
27.044273
27.053040
27.060558
27.066805
27.071755
27.075376
27.077643
27.078538
27.078039
27.076118
27.072742
27.067881
27.061517
27.053630
27.044193
27.033175
27.020547
27.006292
26.990399
26.972853
26.953636
26.932730
26.910137
26.885871
26.859953
26.832405
26.803255
26.772559
26.740399
26.706883
26.672133
26.636295
26.599547
26.562122
26.524303
26.486410
26.448803
26.411896
26.376167
26.342168
26.310509
26.281846
26.256877
26.236355
26.221088
26.211919
26.209693
26.215235
26.229338
26.252755
26.286173
26.330166
26.385149
26.451347
26.528776
26.617225
26.716211
26.824921
26.942176
27.066400
27.195610
27.327397
27.458892
27.586781
27.707379
27.816813
27.911284
27.987632
28.042958
28.076813
28.088347
24.454319
24.455949
24.460823
24.468901
24.480119
24.494389
24.511609
24.531655
24.554393
24.579675
24.607349
24.637254
24.669229
24.703113
24.738747
24.775975
24.814647
24.854616
24.895746
24.937904
24.980965
25.024810
25.069328
25.114414
25.159969
25.205901
25.252124
25.298558
25.345126
25.391759
25.438391
25.484963
25.531416
25.577699
25.623762
25.669560
25.715051
25.760195
25.804955
25.849299
25.893193
25.936607
25.979514
26.021888
26.063705
26.104941
26.145572
26.185580
26.224946
26.263650
26.301671
26.338994
26.375603
26.411482
26.446612
26.480977
26.514563
26.547355
26.579339
26.610496
26.640810
26.670268
26.698856
26.726559
26.753355
26.779230
26.804168
26.828157
26.851177
26.873208
26.894231
26.914230
26.933192
26.951095
26.967916
26.983634
26.998231
27.011692
27.023993
27.035110
27.045016
27.053693
27.061122
27.067281
27.072140
27.075670
27.077849
27.078658
27.078074
27.076064
27.072598
27.067650
27.061201
27.053229
27.043705
27.032596
27.019880
27.005539
26.989560
26.971927
26.952617
26.931619
26.908936
26.884580
26.858570
26.830924
26.801675
26.770879
26.738620
26.705002
26.670144
26.634191
26.597326
26.559784
26.521844
26.483823
26.446080
26.409029
26.373155
26.339008
26.307196
26.278369
26.253230
26.232536
26.217098
26.207757
26.205358
26.210724
26.224653
26.247906
26.281173
26.325026
26.379878
26.445956
26.523284
26.611657
26.710588
26.819262
26.936496
27.060716
27.189946
27.321774
27.453330
27.581292
27.701975
27.811514
27.906113
27.982551
28.038127
28.072378
28.084065
24.475315
24.476917
24.481707
24.489647
24.500677
24.514713
24.531654
24.551384
24.573771
24.598673
24.625941
24.655421
24.686956
24.720388
24.755562
24.792326
24.830533
24.870039
24.910708
24.952411
24.995022
25.038426
25.082511
25.127174
25.172315
25.217844
25.263674
25.309725
25.355922
25.402194
25.448476
25.494708
25.540831
25.586794
25.632548
25.678046
25.723246
25.768109
25.812597
25.856677
25.900314
25.943480
25.986148
26.028290
26.069881
26.110897
26.151316
26.191119
26.230285
26.268794
26.306626
26.343766
26.380198
26.415902
26.450862
26.485062
26.518488
26.551125
26.582955
26.613961
26.644129
26.673445
26.701894
26.729458
26.756118
26.781861
26.806671
26.830533
26.853427
26.875333
26.896234
26.916116
26.934961
26.952747
26.969451
26.985055
26.999542
27.012892
27.025083
27.036088
27.045886
27.054457
27.061782
27.067834
27.072585
27.076009
27.078086
27.078794
27.078106
27.075991
27.072420
27.067371
27.060822
27.052748
27.043119
27.031905
27.019085
27.004643
26.988563
26.970823
26.951405
26.930300
26.907510
26.883049
26.856929
26.829167
26.799801
26.768888
26.736512
26.702773
26.667786
26.631698
26.594696
26.557016
26.518933
26.480759
26.442854
26.405636
26.369591
26.335270
26.303274
26.274255
26.248915
26.228018
26.212379
26.202836
26.200230
26.205388
26.219115
26.242177
26.275266
26.318953
26.373650
26.439588
26.516801
26.605085
26.703953
26.812585
26.929796
27.054015
27.183271
27.315151
27.446777
27.574823
27.695603
27.805259
27.900011
27.976564
28.032467
28.067148
28.078960
24.499100
24.500671
24.505369
24.513158
24.523981
24.537758
24.554392
24.573770
24.595768
24.620247
24.647065
24.676072
24.707115
24.740042
24.774702
24.810947
24.848632
24.887618
24.927770
24.968960
25.011066
25.053971
25.097568
25.141752
25.186425
25.231497
25.276882
25.322499
25.368274
25.414136
25.460020
25.505864
25.551613
25.597212
25.642613
25.687769
25.732638
25.777180
25.821357
25.865135
25.908480
25.951364
25.993757
26.035632
26.076965
26.117730
26.157908
26.197475
26.236411
26.274697
26.312314
26.349244
26.385471
26.420975
26.455741
26.489752
26.522995
26.555451
26.587104
26.617938
26.647939
26.677091
26.705379
26.732784
26.759289
26.784881
26.809544
26.833259
26.856007
26.877770
26.898533
26.918279
26.936988
26.954638
26.971208
26.986683
27.001042
27.014265
27.026327
27.037205
27.046879
27.055329
27.062532
27.068460
27.073088
27.076392
27.078351
27.078941
27.078133
27.075896
27.072206
27.067040
27.060375
27.052183
27.042433
27.031099
27.018161
27.003602
26.987403
26.969540
26.949998
26.928769
26.905859
26.881274
26.855025
26.827131
26.797630
26.766584
26.734073
26.700192
26.665055
26.628813
26.591655
26.553816
26.515566
26.477216
26.439124
26.401713
26.365473
26.330950
26.298742
26.269499
26.243929
26.222801
26.206931
26.197153
26.194308
26.199227
26.212722
26.235567
26.268452
26.311947
26.366464
26.432245
26.509328
26.597514
26.696311
26.804895
26.922080
27.046304
27.175594
27.307535
27.439241
27.567378
27.688262
27.798044
27.892965
27.969653
28.025951
28.060999
28.072881
24.525514
24.527052
24.531651
24.539278
24.549877
24.563373
24.579674
24.598672
24.620247
24.644268
24.670595
24.699086
24.729593
24.761969
24.796067
24.831742
24.868855
24.907269
24.946851
24.987476
25.029023
25.071379
25.114435
25.158089
25.202244
25.246809
25.291699
25.336834
25.382140
25.427545
25.472985
25.518398
25.563728
25.608921
25.653928
25.698702
25.743201
25.787383
25.831212
25.874651
25.917670
25.960236
26.002321
26.043898
26.084940
26.125426
26.165331
26.204633
26.243311
26.281346
26.318721
26.355415
26.391411
26.426690
26.461238
26.495037
26.528072
26.560324
26.591778
26.622419
26.652232
26.681199
26.709304
26.736530
26.762861
26.788283
26.812778
26.836326
26.858911
26.880514
26.901121
26.920712
26.939266
26.956763
26.973184
26.988513
27.002727
27.015804
27.027721
27.038456
27.047991
27.056303
27.063366
27.069155
27.073644
27.076813
27.078639
27.079094
27.078148
27.075776
27.071952
27.066655
27.059857
27.051529
27.041642
27.030173
27.017103
27.002412
26.986076
26.968073
26.948391
26.927025
26.903977
26.879251
26.852855
26.824810
26.795160
26.763964
26.731299
26.697255
26.661949
26.625533
26.588200
26.550181
26.511740
26.473188
26.434885
26.397260
26.360799
26.326046
26.293596
26.264099
26.238270
26.216883
26.200751
26.190706
26.187589
26.192238
26.205475
26.228075
26.260730
26.304005
26.358321
26.423927
26.500869
26.588946
26.687663
26.796193
26.913354
27.037588
27.166922
27.298933
27.430725
27.558960
27.679953
27.789863
27.884957
27.961797
28.018519
28.053778
28.065663
24.554389
24.555892
24.560386
24.567841
24.578202
24.591400
24.607347
24.625940
24.647065
24.670595
24.696398
24.724337
24.754269
24.786053
24.819546
24.854609
24.891104
24.928899
24.967865
25.007878
25.048820
25.090578
25.133046
25.176122
25.219711
25.263723
25.308072
25.352680
25.397471
25.442376
25.487329
25.532270
25.577140
25.621886
25.666460
25.710813
25.754903
25.798690
25.842134
25.885202
25.927859
25.970075
26.011820
26.053066
26.093789
26.133964
26.173567
26.212575
26.250969
26.288728
26.325833
26.362264
26.398004
26.433035
26.467341
26.500904
26.533707
26.565734
26.596968
26.627395
26.656997
26.685758
26.713660
26.740688
26.766827
26.792059
26.816365
26.839728
26.862132
26.883558
26.903990
26.923407
26.941789
26.959117
26.975373
26.990538
27.004589
27.017503
27.029259
27.039838
27.049217
27.057373
27.064280
27.069913
27.074250
27.077269
27.078944
27.079246
27.078149
27.075626
27.071654
27.066209
27.059261
27.050781
27.040744
27.029126
27.015908
27.001066
26.984576
26.966419
26.946583
26.925064
26.901861
26.876975
26.850414
26.822204
26.792388
26.761024
26.728184
26.693957
26.658463
26.621856
26.584328
26.546106
26.507450
26.468672
26.430137
26.392273
26.355566
26.320554
26.287830
26.258052
26.231937
26.210262
26.193835
26.183490
26.180070
26.184421
26.197372
26.219701
26.252096
26.295127
26.349221
26.414636
26.491424
26.579382
26.678010
26.786482
26.903622
27.027873
27.157261
27.289350
27.421235
27.549572
27.670677
27.780712
27.875968
27.952972
28.010083
28.045354
28.057185
24.585551
24.587018
24.591403
24.598677
24.608790
24.621677
24.637252
24.655420
24.676071
24.699085
24.724337
24.751692
24.781017
24.812175
24.845027
24.879439
24.915277
24.952413
24.990720
25.030079
25.070372
25.111490
25.153327
25.195782
25.238763
25.282178
25.325944
25.369982
25.414218
25.458582
25.503008
25.547435
25.591807
25.636069
25.680172
25.724068
25.767715
25.811070
25.854097
25.896759
25.939022
25.980856
26.022230
26.063117
26.103490
26.143325
26.182597
26.221285
26.259367
26.296823
26.333633
26.369777
26.405237
26.439997
26.474037
26.507340
26.539890
26.571670
26.602663
26.632854
26.662224
26.690758
26.718439
26.745250
26.771176
26.796197
26.820297
26.843458
26.865663
26.886894
26.907132
26.926357
26.944551
26.961694
26.977768
26.992751
27.006621
27.019356
27.030937
27.041343
27.050549
27.058532
27.065267
27.070730
27.074901
27.077753
27.079260
27.079394
27.078129
27.075442
27.071308
27.065698
27.058583
27.049936
27.039733
27.027953
27.014570
26.999560
26.982899
26.964573
26.944569
26.922881
26.899505
26.874440
26.847698
26.819308
26.789310
26.757759
26.724723
26.690294
26.654594
26.617778
26.580035
26.541586
26.502691
26.463664
26.424875
26.386749
26.349768
26.314467
26.281442
26.251355
26.224927
26.202933
26.186180
26.175501
26.171747
26.175772
26.188411
26.210439
26.242547
26.285308
26.339161
26.404372
26.480993
26.568820
26.667351
26.775764
26.892887
27.017164
27.146613
27.278787
27.410772
27.539218
27.660438
27.770592
27.865990
27.943163
28.000532
28.035651
28.047390
24.618826
24.620255
24.624527
24.631615
24.641473
24.654036
24.669228
24.686955
24.707114
24.729592
24.754269
24.781017
24.809708
24.840210
24.872390
24.906119
24.941267
24.977709
25.015322
25.053989
25.093596
25.134035
25.175201
25.216998
25.259330
25.302110
25.345254
25.388684
25.432326
25.476111
25.519973
25.563851
25.607687
25.651429
25.695026
25.738431
25.781600
25.824492
25.867068
25.909292
25.951131
25.992552
26.033526
26.074024
26.114019
26.153486
26.192402
26.230743
26.268488
26.305615
26.342104
26.377937
26.413095
26.447559
26.481310
26.514331
26.546607
26.578118
26.608850
26.638783
26.667902
26.696189
26.723629
26.750205
26.775897
26.800690
26.824565
26.847506
26.869495
26.890512
26.910538
26.929555
26.947544
26.964486
26.980359
26.995143
27.008816
27.021358
27.032748
27.042964
27.051980
27.059774
27.066322
27.071601
27.075589
27.078257
27.079580
27.079531
27.078086
27.075219
27.070905
27.065113
27.057816
27.048988
27.038606
27.026646
27.013081
26.997887
26.981042
26.962531
26.942344
26.920470
26.896901
26.871642
26.844705
26.816118
26.785920
26.754162
26.720912
26.686263
26.650340
26.613295
26.575314
26.536614
26.497459
26.458162
26.419096
26.380683
26.343400
26.307782
26.274428
26.244005
26.217236
26.194892
26.177779
26.166735
26.162618
26.166291
26.178588
26.200286
26.232078
26.274548
26.328142
26.393134
26.469575
26.557258
26.655685
26.764039
26.881152
27.005464
27.134981
27.267246
27.399338
27.527903
27.649246
27.759514
27.855025
27.932375
27.989797
28.024662
28.036292
24.654040
24.655431
24.659587
24.666485
24.676081
24.688314
24.703112
24.720387
24.740041
24.761968
24.786053
24.812174
24.840210
24.870032
24.901516
24.934534
24.968964
25.004682
25.041571
25.079514
25.118402
25.158129
25.198591
25.239693
25.281342
25.323452
25.365939
25.408726
25.451739
25.494910
25.538172
25.581466
25.624734
25.667923
25.710981
25.753863
25.796523
25.838919
25.881015
25.922772
25.964157
26.005136
26.045681
26.085762
26.125352
26.164426
26.202959
26.240927
26.278309
26.315084
26.351230
26.386728
26.421559
26.455704
26.489145
26.521864
26.553844
26.585066
26.615514
26.645170
26.674017
26.702040
26.729220
26.755539
26.780980
26.805526
26.829160
26.851863
26.873617
26.894402
26.914200
26.932992
26.950760
26.967483
26.983139
26.997707
27.011169
27.023502
27.034684
27.044692
27.053502
27.061092
27.067439
27.072519
27.076307
27.078775
27.079898
27.079652
27.078012
27.074950
27.070438
27.064449
27.056955
27.047933
27.037357
27.025200
27.011436
26.996042
26.978998
26.960290
26.939902
26.917822
26.894046
26.868576
26.841429
26.812629
26.782212
26.750227
26.716744
26.681859
26.645695
26.608402
26.570159
26.531186
26.491748
26.452162
26.412796
26.374068
26.336454
26.300492
26.266784
26.235999
26.208859
26.186132
26.168626
26.157187
26.152681
26.155972
26.167897
26.189235
26.220685
26.262842
26.316161
26.380918
26.457164
26.544693
26.643011
26.751308
26.868417
26.992770
27.122362
27.254727
27.386938
27.515635
27.637111
27.747495
27.843091
27.920618
27.977880
28.012452
28.023972
24.691022
24.692373
24.696414
24.703119
24.712449
24.724348
24.738746
24.755561
24.774702
24.796066
24.819546
24.845027
24.872390
24.901516
24.932282
24.964569
24.998257
25.033227
25.069365
25.106559
25.144699
25.183684
25.223413
25.263790
25.304725
25.346133
25.387931
25.430043
25.472396
25.514921
25.557554
25.600233
25.642901
25.685505
25.727995
25.770322
25.812443
25.854316
25.895902
25.937164
25.978066
26.018577
26.058667
26.098305
26.137464
26.176119
26.214243
26.251815
26.288811
26.325209
26.360989
26.396130
26.430612
26.464417
26.497526
26.529921
26.561584
26.592496
26.622641
26.652001
26.680559
26.708297
26.735197
26.761241
26.786414
26.810696
26.834070
26.856517
26.878017
26.898554
26.918108
26.936660
26.954189
26.970675
26.986097
27.000436
27.013670
27.025777
27.036735
27.046519
27.055109
27.062481
27.068611
27.073475
27.077046
27.079299
27.080209
27.079752
27.077900
27.074626
27.069901
27.063700
27.055997
27.046765
27.035978
27.023607
27.009629
26.994021
26.976764
26.957841
26.937235
26.914933
26.890933
26.865239
26.837866
26.808834
26.778178
26.745948
26.712216
26.677078
26.640654
26.603089
26.564563
26.525297
26.485557
26.445660
26.405968
26.366898
26.328926
26.292594
26.258507
26.227332
26.199789
26.176645
26.158717
26.146855
26.141930
26.144811
26.156332
26.177280
26.208363
26.250188
26.303214
26.367718
26.443753
26.531117
26.629326
26.737570
26.854681
26.979080
27.108753
27.241229
27.373575
27.502422
27.624046
27.734555
27.830215
27.907892
27.964856
27.999157
28.010593
24.729607
24.730919
24.734842
24.741354
24.750417
24.761978
24.775973
24.792325
24.810947
24.831742
24.854609
24.879439
24.906119
24.934534
24.964570
24.996109
25.029036
25.063239
25.098605
25.135026
25.172396
25.210614
25.249583
25.289209
25.329403
25.370082
25.411164
25.452573
25.494237
25.536088
25.578061
25.620097
25.662137
25.704129
25.746021
25.787768
25.829322
25.870644
25.911693
25.952432
25.992827
26.032844
26.072453
26.111623
26.150327
26.188538
26.226232
26.263383
26.299970
26.335969
26.371360
26.406122
26.440234
26.473679
26.506436
26.538486
26.569812
26.600395
26.630218
26.659262
26.687511
26.714945
26.741547
26.767300
26.792186
26.816186
26.839282
26.861455
26.882687
26.902960
26.922253
26.940546
26.957819
26.974053
26.989227
27.003320
27.016310
27.028175
27.038892
27.048439
27.056793
27.063931
27.069829
27.074459
27.077799
27.079823
27.080506
27.079821
27.077742
27.074239
27.069288
27.062861
27.054933
27.045475
27.034459
27.021860
27.007653
26.991818
26.974333
26.955177
26.934335
26.911796
26.887558
26.861624
26.834007
26.804724
26.773811
26.741321
26.707324
26.671915
26.635208
26.597350
26.558521
26.518942
26.478880
26.438647
26.398603
26.359165
26.320811
26.284085
26.249592
26.217996
26.190017
26.166426
26.148046
26.135733
26.130361
26.132797
26.143883
26.164414
26.195109
26.236581
26.289294
26.353526
26.429335
26.516528
26.614626
26.722822
26.839937
26.964386
27.094150
27.226752
27.359252
27.488269
27.610060
27.720710
27.816434
27.894199
27.950861
27.985013
27.996435
24.769635
24.770908
24.774714
24.781033
24.789829
24.801053
24.814645
24.830532
24.848632
24.868855
24.891104
24.915277
24.941267
24.968964
24.998257
25.029036
25.061191
25.094611
25.129189
25.164818
25.201398
25.238830
25.277017
25.315870
25.355300
25.395226
25.435566
25.476248
25.517198
25.558349
25.599638
25.641005
25.682391
25.723745
25.765015
25.806154
25.847117
25.887862
25.928350
25.968543
26.008405
26.047904
26.087007
26.125686
26.163912
26.201657
26.238897
26.275606
26.311761
26.347340
26.382322
26.416684
26.450406
26.483469
26.515853
26.547540
26.578510
26.608745
26.638227
26.666937
26.694857
26.721970
26.748258
26.773702
26.798283
26.821984
26.844785
26.866668
26.887615
26.907606
26.926621
26.944639
26.961642
26.977608
26.992517
27.006348
27.019078
27.030685
27.041147
27.050441
27.058545
27.065433
27.071081
27.075464
27.078559
27.080339
27.080779
27.079851
27.077528
27.073783
27.068591
27.061924
27.053754
27.044053
27.032794
27.019953
27.005504
26.989426
26.971694
26.952289
26.931196
26.908406
26.883915
26.857724
26.829843
26.800292
26.769107
26.736340
26.702061
26.666359
26.629350
26.591179
26.552027
26.512117
26.471711
26.431117
26.390695
26.350864
26.312104
26.274958
26.240031
26.207983
26.179536
26.155469
26.136610
26.123816
26.117963
26.119923
26.130544
26.150631
26.180916
26.222013
26.274390
26.338331
26.413903
26.500920
26.598908
26.707054
26.824176
26.948682
27.078549
27.211296
27.343972
27.473176
27.595153
27.705972
27.801800
27.879583
27.936094
27.970363
27.981916
24.810955
24.812189
24.815879
24.822006
24.830537
24.841426
24.854615
24.870038
24.887617
24.907268
24.928899
24.952413
24.977709
25.004682
25.033227
25.063239
25.094611
25.127237
25.161014
25.195839
25.231614
25.268242
25.305630
25.343691
25.382338
25.421490
25.461069
25.501001
25.541215
25.581645
25.622227
25.662901
25.703611
25.744303
25.784927
25.825436
25.865784
25.905930
25.945833
25.985456
26.024764
26.063722
26.102299
26.140464
26.178189
26.215447
26.252211
26.288457
26.324161
26.359300
26.393851
26.427793
26.461105
26.493768
26.525761
26.557065
26.587660
26.617528
26.646650
26.675009
26.702584
26.729359
26.755314
26.780430
26.804690
26.828075
26.850565
26.872143
26.892788
26.912480
26.931200
26.948929
26.965645
26.981329
26.995957
27.009509
27.021964
27.033298
27.043491
27.052517
27.060354
27.066976
27.072361
27.076483
27.079318
27.080839
27.081019
27.079832
27.077251
27.073251
27.067803
27.060880
27.052452
27.042493
27.030978
27.017880
27.003173
26.986834
26.968839
26.949170
26.927813
26.904757
26.879995
26.853529
26.825368
26.795533
26.764060
26.730999
26.696417
26.660403
26.623072
26.584569
26.545077
26.504814
26.464039
26.423059
26.382236
26.341989
26.302800
26.265207
26.229813
26.197282
26.168340
26.143770
26.124401
26.111095
26.104727
26.106178
26.116306
26.135927
26.165776
26.206473
26.258491
26.322124
26.397449
26.484287
26.582161
26.690257
26.807387
26.931960
27.061947
27.194860
27.327729
27.457139
27.579320
27.690337
27.786341
27.864123
27.920769
27.955529
27.967337
24.853422
24.854618
24.858193
24.864130
24.872398
24.882954
24.895745
24.910708
24.927769
24.946850
24.967865
24.990721
25.015322
25.041571
25.069365
25.098605
25.129189
25.161014
25.193981
25.227991
25.262949
25.298760
25.335337
25.372590
25.410439
25.448801
25.487601
25.526765
25.566225
25.605913
25.645768
25.685730
25.725742
25.765752
25.805710
25.845567
25.885280
25.924805
25.964103
26.003135
26.041867
26.080263
26.118292
26.155924
26.193128
26.229879
26.266148
26.301911
26.337143
26.371822
26.405923
26.439427
26.472311
26.504554
26.536137
26.567040
26.597243
26.626726
26.655472
26.683461
26.710674
26.737093
26.762698
26.787471
26.811394
26.834446
26.856610
26.877864
26.898191
26.917570
26.935981
26.953404
26.969818
26.985202
26.999534
27.012793
27.024958
27.036005
27.045912
27.054654
27.062209
27.068552
27.073659
27.077505
27.080064
27.081310
27.081216
27.079757
27.076905
27.072633
27.066914
27.059718
27.051018
27.040788
27.029002
27.015631
27.000650
26.984034
26.965762
26.945815
26.924178
26.900839
26.875789
26.849031
26.820574
26.790440
26.758662
26.725288
26.690385
26.654039
26.616368
26.577517
26.537664
26.497024
26.455856
26.414468
26.373222
26.332536
26.292890
26.254821
26.218931
26.185889
26.156424
26.131321
26.111411
26.097557
26.090642
26.091555
26.101164
26.120292
26.149677
26.189947
26.241586
26.304897
26.379966
26.466617
26.564372
26.672416
26.789561
26.914213
27.044340
27.177435
27.310515
27.440148
27.562551
27.673789
27.770036
27.847876
27.904976
27.940328
27.952281
24.896899
24.898057
24.901519
24.907269
24.915278
24.925506
24.937903
24.952410
24.968959
24.987476
25.007878
25.030079
25.053989
25.079515
25.106559
25.135026
25.164819
25.195839
25.227991
25.261180
25.295312
25.330299
25.366052
25.402488
25.439525
25.477084
25.515090
25.553472
25.592161
25.631091
25.670202
25.709434
25.748731
25.788041
25.827313
25.866501
25.905558
25.944444
25.983117
26.021540
26.059676
26.097492
26.134954
26.172033
26.208698
26.244922
26.280677
26.315938
26.350680
26.384880
26.418515
26.451562
26.483999
26.515805
26.546961
26.577445
26.607238
26.636321
26.664673
26.692276
26.719109
26.745156
26.770395
26.794809
26.818378
26.841082
26.862902
26.883819
26.903812
26.922862
26.940948
26.958050
26.974146
26.989216
27.003237
27.016189
27.028049
27.038793
27.048399
27.056843
27.064101
27.070151
27.074965
27.078519
27.080787
27.081744
27.081362
27.079616
27.076478
27.071919
27.065913
27.058430
27.049445
27.038930
27.026856
27.013196
26.997925
26.981019
26.962455
26.942215
26.920282
26.896642
26.871288
26.844222
26.815455
26.785005