# vtk DataFile Version 3.0
Example structured points dataset
ASCII

DATASET STRUCTURED_POINTS
DIMENSIONS 151 151 2
ORIGIN 0 0 0
SPACING 0.005000 0.005000 0.005000

POINT_DATA 45602
SCALARS Transmembrane_Potential float 1
LOOKUP_TABLE default
21.628799
21.629803
21.632852
21.638031
21.645312
21.654620
21.665894
21.679068
21.694070
21.710824
21.729246
21.749250
21.770753
21.793670
21.817920
21.843424
21.870106
21.897897
21.926727
21.956534
21.987258
22.018841
22.051232
22.084381
22.118239
22.152765
22.187917
22.223655
22.259944
22.296752
22.334045
22.371793
22.409969
22.448548
22.487504
22.526812
22.566454
22.606409
22.646657
22.687179
22.727960
22.768986
22.810241
22.851709
22.893378
22.935239
22.977279
23.019485
23.061848
23.104360
23.147014
23.189798
23.232705
23.275727
23.318860
23.362098
23.405432
23.448855
23.492365
23.535959
23.579630
23.623371
23.667180
23.711054
23.754992
23.798990
23.843041
23.887144
23.931300
23.975508
24.019764
24.064066
24.108413
24.152808
24.197252
24.241745
24.286283
24.330870
24.375513
24.420214
24.464974
24.509795
24.554684
24.599648
24.644697
24.689835
24.735068
24.780405
24.825860
24.871448
24.917178
24.963062
25.009112
25.055350
25.101796
25.148469
25.195383
25.242560
25.290025
25.337807
25.385932
25.434425
25.483309
25.532618
25.582389
25.632655
25.683448
25.734799
25.786744
25.839325
25.892585
25.946560
26.001286
26.056799
26.113143
26.170363
26.228500
26.287585
26.347653
26.408739
26.470882
26.534117
26.598465
26.663943
26.730565
26.798347
26.867295
26.937400
27.008638
27.080970
27.154348
27.228709
27.303961
27.379979
27.456596
27.533612
27.610780
27.687794
27.764264
27.839703
27.913515
27.984983
28.053256
28.117334
28.176081
28.228267
28.272658
28.308224
28.333881
28.349336
28.354518
21.629804
21.630819
21.633883
21.639071
21.646349
21.655649
21.666911
21.680073
21.695062
21.711800
21.730205
21.750193
21.771677
21.794576
21.818807
21.844292
21.870956
21.898728
21.927540
21.957329
21.988035
22.019602
22.051976
22.085108
22.118950
22.153460
22.188597
22.224320
22.260596
22.297389
22.334669
22.372404
22.410567
22.449134
22.488078
22.527375
22.567005
22.606949
22.647187
22.687699
22.728471
22.769487
22.810732
22.852191
22.893852
22.935704
22.977736
23.019934
23.062289
23.104794
23.147440
23.190217
23.233117
23.276132
23.319259
23.362490
23.405818
23.449235
23.492739
23.536327
23.579993
23.623729
23.667532
23.711401
23.755334
23.799327
23.843373
23.887471
23.931622
23.975826
24.020078
24.064375
24.108718
24.153109
24.197549
24.242038
24.286572
24.331155
24.375794
24.420491
24.465248
24.510066
24.554950
24.599911
24.644957
24.690091
24.735321
24.780654
24.826106
24.871691
24.917418
24.963298
25.009345
25.055580
25.102023
25.148692
25.195603
25.242777
25.290239
25.338018
25.386140
25.434629
25.483511
25.532817
25.582585
25.632848
25.683638
25.734986
25.786928
25.839506
25.892763
25.946736
26.001458
26.056968
26.113310
26.170528
26.228661
26.287744
26.347808
26.408892
26.471033
26.534265
26.598610
26.664085
26.730705
26.798485
26.867430
26.937533
27.008769
27.081098
27.154474
27.228833
27.304083
27.380098
27.456714
27.533728
27.610894
27.687907
27.764375
27.839812
27.913622
27.985089
28.053361
28.117439
28.176184
28.228369
28.272759
28.308324
28.333982
28.349440
28.354620
21.632851
21.633882
21.636987
21.642191
21.649458
21.658734
21.669966
21.683090
21.698037
21.714729
21.733084
21.753020
21.774451
21.797294
21.821470
21.846898
21.873507
21.901223
21.929981
21.959717
21.990370
22.021885
22.054208
22.087291
22.121086
22.155549
22.190641
22.226320
22.262553
22.299305
22.336545
22.374241
22.412367
22.450896
22.489804
22.529067
22.568664
22.608576
22.648782
22.689264
22.730006
22.770993
22.812211
22.853643
22.895277
22.937104
22.979111
23.021285
23.063617
23.106099
23.148723
23.191479
23.234358
23.277353
23.320461
23.363673
23.406982
23.450381
23.493868
23.537438
23.581087
23.624806
23.668593
23.712447
23.756366
23.800343
23.844374
23.888458
23.932596
23.976786
24.021025
24.065309
24.109639
24.154018
24.198446
24.242922
24.287444
24.332016
24.376644
24.421330
24.466075
24.510882
24.555755
24.600706
24.645741
24.690866
24.736084
24.781408
24.826850
24.872425
24.918142
24.964012
25.010050
25.056275
25.102709
25.149369
25.196270
25.243434
25.290887
25.338657
25.386771
25.435250
25.484122
25.533420
25.583179
25.633433
25.684214
25.735552
25.787485
25.840055
25.893304
25.947268
26.001981
26.057483
26.113816
26.171026
26.229151
26.288225
26.348281
26.409356
26.471490
26.534714
26.599051
26.664518
26.731131
26.798903
26.867842
26.937938
27.009166
27.081489
27.154858
27.229211
27.304455
27.380464
27.457073
27.534081
27.611243
27.688250
27.764714
27.840146
27.913951
27.985414
28.053684
28.117759
28.176504
28.228689
28.273079
28.308640
28.334296
28.349767
28.354970
21.638030
21.639071
21.642191
21.647386
21.654623
21.663856
21.675034
21.688097
21.702974
21.719590
21.737864
21.757714
21.779056
21.801809
21.825892
21.851228
21.877745
21.905370
21.934037
21.963684
21.994250
22.025680
22.057920
22.090921
22.124637
22.159023
22.194040
22.229646
22.265808
22.302492
22.339664
22.377296
22.415359
22.453828
22.492677
22.531882
22.571424
22.611282
22.651435
22.691866
22.732560
22.773500
22.814670
22.856057
22.897649
22.939433
22.981399
23.023533
23.065826
23.108271
23.150859
23.193579
23.236423
23.279385
23.322460
23.365640
23.408918
23.452287
23.495744
23.539287
23.582907
23.626599
23.670360
23.714188
23.758081
23.802034
23.846040
23.890101
23.934217
23.978384
24.022600
24.066862
24.111171
24.155530
24.199938
24.244393
24.288895
24.333448
24.378057
24.422724
24.467451
24.512239
24.557095
24.602029
24.647046
24.692153
24.737354
24.782661
24.828087
24.873646
24.919346
24.965199
25.011221
25.057431
25.103850
25.150493
25.197378
25.244527
25.291965
25.339720
25.387818
25.436282
25.485139
25.534421
25.584166
25.634406
25.685171
25.736494
25.788412
25.840969
25.894203
25.948152
26.002850
26.058337
26.114657
26.171853
26.229964
26.289024
26.349066
26.410128
26.472249
26.535460
26.599784
26.665238
26.731838
26.799598
26.868526
26.938610
27.009826
27.082137
27.155496
27.229838
27.305073
27.381071
27.457670
27.534668
27.611822
27.688821
27.765277
27.840700
27.914497
27.985954
28.054219
28.118292
28.177036
28.229221
28.273613
28.309170
28.334832
28.350339
28.355567
21.645311
21.646350
21.649459
21.654623
21.661812
21.670984
21.682089
21.695066
21.709847
21.726358
21.744519
21.764251
21.785470
21.808097
21.832054
21.857263
21.883652
21.911150
21.939693
21.969217
21.999662
22.030974
22.063098
22.095987
22.129592
22.163872
22.198784
22.234289
22.270353
22.306941
22.344021
22.381562
22.419538
22.457922
22.496688
22.535814
22.575279
22.615062
22.655142
22.695502
22.736128
22.777001
22.818107
22.859431
22.900962
22.942688
22.984596
23.026674
23.068914
23.111307
23.153843
23.196513
23.239308
23.282224
23.325254
23.368389
23.411623
23.454950
23.498368
23.541870
23.585450
23.629104
23.672828
23.716621
23.760479
23.804396
23.848369
23.892397
23.936481
23.980617
24.024801
24.069033
24.113312
24.157642
24.202022
24.246448
24.290923
24.335449
24.380032
24.424673
24.469373
24.514135
24.558967
24.603876
24.648870
24.693952
24.739128
24.784412
24.829816
24.875351
24.921028
24.966858
25.012857
25.059046
25.105443
25.152064
25.198927
25.246053
25.293470
25.341205
25.389281
25.437723
25.486558
25.535820
25.585545
25.635764
25.686508
25.737809
25.789708
25.842244
25.895459
25.949387
26.004064
26.059531
26.115832
26.173009
26.231101
26.290140
26.350162
26.411206
26.473310
26.536503
26.600808
26.666243
26.732825
26.800569
26.869480
26.939548
27.010747
27.083041
27.156385
27.230714
27.305935
27.381918
27.458502
27.535488
27.612629
27.689618
27.766062
27.841473
27.915259
27.986708
28.054967
28.119037
28.177779
28.229966
28.274363
28.309919
28.335601
28.351166
28.356427
21.654619
21.655650
21.658735
21.663856
21.670984
21.680078
21.691090
21.703959
21.718618
21.734997
21.753016
21.772598
21.793664
21.816133
21.839929
21.864977
21.891205
21.918545
21.946929
21.976297
22.006590
22.037751
22.069729
22.102474
22.135940
22.170084
22.204863
22.240240
22.276178
22.312644
22.349605
22.387032
22.424897
22.463172
22.501833
22.540858
22.580224
22.619910
22.659897
22.700168
22.740705
22.781493
22.822516
22.863761
22.905215
22.946865
22.988699
23.030706
23.072877
23.115203
23.157673
23.200279
23.243013
23.285869
23.328841
23.371918
23.415096
23.458370
23.501736
23.545186
23.588716
23.632321
23.675999
23.719746
23.763558
23.807430
23.851359
23.895346
23.939389
23.983484
24.027628
24.071820
24.116063
24.160356
24.204698
24.249088
24.293527
24.338020
24.382569
24.427176
24.471842
24.516571
24.561371
24.606250
24.651212
24.696261
24.741407
24.786661
24.832036
24.877542
24.923189
24.968989
25.014960
25.061121
25.107489
25.154081
25.200915
25.248014
25.295404
25.343112
25.391160
25.439574
25.488382
25.537618
25.587316
25.637508
25.688224
25.739499
25.791371
25.843882
25.897071
25.950972
26.005623
26.061064
26.117341
26.174494
26.232560
26.291573
26.351571
26.412591
26.474671
26.537841
26.602122
26.667533
26.734093
26.801816
26.870707
26.940752
27.011929
27.084203
27.157528
27.231839
27.307041
27.383006
27.459571
27.536540
27.613667
27.690641
27.767070
27.842466
27.916239
27.987677
28.055929
28.119994
28.178735
28.230925
28.275331
28.310890
28.336609
28.352262
28.357566
21.665892
21.666913
21.669966
21.675034
21.682088
21.691089
21.701988
21.714728
21.729243
21.745463
21.763313
21.782718
21.803599
21.825880
21.849486
21.874342
21.900378
21.927526
21.955721
21.984902
22.015011
22.045992
22.077793
22.110366
22.143664
22.177643
22.212262
22.247483
22.283270
22.319589
22.356407
22.393695
22.431425
22.469569
22.508103
22.547004
22.586250
22.625820
22.665694
22.705856
22.746287
22.786971
22.827894
22.869042
22.910401
22.951959
22.993704
23.035624
23.077712
23.119956
23.162346
23.204875
23.247534
23.290318
23.333217
23.376225
23.419336
23.462545
23.505846
23.549234
23.592703
23.636249
23.679869
23.723559
23.767315
23.811133
23.855010
23.898946
23.942939
23.986983
24.031079
24.075224
24.119421
24.163669
24.207966
24.252311
24.296707
24.341158
24.385666
24.430231
24.474856
24.519546
24.564308
24.609148
24.654071
24.699082
24.744191
24.789409
24.834748
24.880217
24.925826
24.971591
25.017528
25.063654
25.109988
25.156545
25.203344
25.250409
25.297767
25.345441
25.393455
25.441834
25.490609
25.539813
25.589479
25.639638
25.690320
25.741562
25.793403
25.845883
25.899040
25.952909
26.007527
26.062937
26.119184
26.176306
26.234341
26.293323
26.353290
26.414282
26.476335
26.539475
26.603727
26.669109
26.735642
26.803339
26.872204
26.942223
27.013373
27.085622
27.158925
27.233214
27.308393
27.384334
27.460878
27.537827
27.614935
27.691892
27.768301
27.843679
27.917437
27.988863
28.057106
28.121165
28.179902
28.232096
28.276517
28.312083
28.337860
28.353627
28.358977
21.679066
21.680074
21.683090
21.688096
21.695065
21.703958
21.714727
21.727318
21.741666
21.757705
21.775362
21.794563
21.815234
21.837299
21.860684
21.885319
21.911134
21.938061
21.966038
21.995004
22.024900
22.055672
22.087269
22.119641
22.152743
22.186531
22.220964
22.256004
22.291615
22.327762
22.364413
22.401539
22.439110
22.477101
22.515487
22.554244
22.593349
22.632783
22.672525
22.712558
22.752865
22.793428
22.834233
22.875267
22.916516
22.957965
22.999605
23.041425
23.083414
23.125561
23.167858
23.210296
23.252867
23.295565
23.338380
23.381307
23.424338
23.467470
23.510696
23.554010
23.597407
23.640884
23.684436
23.728060
23.771750
23.815504
23.859320
23.903196
23.947129
23.991114
24.035153
24.079243
24.123386
24.167580
24.211823
24.256116
24.300463
24.344864
24.389322
24.433838
24.478415
24.523059
24.567775
24.612570
24.657446
24.702413
24.747478
24.792653
24.837949
24.883375
24.928941
24.974664
25.020560
25.066646
25.112938
25.159453
25.206212
25.253238
25.300556
25.348190
25.396164
25.444503
25.493239
25.542406
25.592033
25.642152
25.692795
25.743999
25.795803
25.848246
25.901365
25.955195
26.009775
26.065150
26.121361
26.178447
26.236444
26.295390
26.355322
26.416280
26.478299
26.541405
26.605621
26.670970
26.737471
26.805138
26.873972
26.943959
27.015078
27.087299
27.160574
27.234837
27.309989
27.385903
27.462421
27.539347
27.616434
27.693369
27.769757
27.845113
27.918852
27.990264
28.058497
28.122547
28.181279
28.233477
28.277915
28.313493
28.339352
28.355245
28.360633
21.694069
21.695063
21.698037
21.702973
21.709846
21.718617
21.729242
21.741666
21.755829
21.771666
21.789108
21.808082
21.828518
21.850341
21.873482
21.897869
21.923436
21.950116
21.977847
22.006570
22.036226
22.066763
22.098129
22.130275
22.163155
22.196727
22.230949
22.265783
22.301193
22.337145
22.373607
22.410548
22.447940
22.485757
22.523973
22.562565
22.601510
22.640788
22.680380
22.720266
22.760430
22.800855
22.841526
22.882429
22.923550
22.964877
23.006397
23.048101
23.089976
23.132013
23.174203
23.216537
23.259008
23.301606
23.344325
23.387158
23.430100
23.473143
23.516282
23.559511
23.602826
23.646223
23.689697
23.733244
23.776859
23.820541
23.864286
23.908092
23.951956
23.995874
24.039847
24.083874
24.127954
24.172086
24.216268
24.260502
24.304791
24.349135
24.393536
24.437995
24.482518
24.527108
24.571772
24.616513
24.661337
24.706252
24.751267
24.796393
24.841639
24.887014
24.932532
24.978207
25.024056
25.070095
25.116339
25.162806
25.209518
25.256499
25.303772
25.351360
25.399286
25.447580
25.496272
25.545395
25.594977
25.645050
25.695648
25.746809
25.798570
25.850970
25.904044
25.957830
26.012367
26.067700
26.123870
26.180914
26.238868
26.297772
26.357664
26.418584
26.480563
26.543628
26.607804
26.673115
26.739581
26.807213
26.876009
26.945960
27.017044
27.089232
27.162477
27.236708
27.311828
27.387711
27.464200
27.541101
27.618163
27.695072
27.771434
27.846768
27.920487
27.991882
28.060101
28.124138
28.182863
28.235062
28.279518
28.315112
28.341072
28.357073
28.362482
21.710822
21.711801
21.714729
21.719589
21.726356
21.734995
21.745461
21.757704
21.771666
21.787283
21.804490
21.823218
21.843397
21.864957
21.887829
21.911946
21.937240
21.963649
21.991110
22.019565
22.048958
22.079234
22.110344
22.142240
22.174874
22.208206
22.242194
22.276799
22.311986
22.347721
22.383971
22.420706
22.457898
22.495519
22.533546
22.571953
22.610720
22.649824
22.689246
22.728968
22.768972
22.809242
22.849763
22.890519
22.931498
22.972686
23.014072
23.055645
23.097392
23.139306
23.181375
23.223593
23.265949
23.308436
23.351047
23.393776
23.436615
23.479558
23.522599
23.565733
23.608956
23.652263
23.695648
23.739108
23.782640
23.826239
23.869905
23.913631
23.957417
24.001260
24.045160
24.089115
24.133124
24.177185
24.221298
24.265466
24.309689
24.353968
24.398305
24.442701
24.487162
24.531692
24.576295
24.620976
24.665741
24.710598
24.755557
24.800626
24.845815
24.891134
24.936597
24.982219
25.028014
25.073999
25.120188
25.166602
25.213262
25.260192
25.307412
25.354947
25.402821
25.451064
25.499707
25.548778
25.598310
25.648331
25.698879
25.749991
25.801703
25.854053
25.907077
25.960813
26.015303
26.070589
26.126711
26.183706
26.241613
26.300469
26.360317
26.421192
26.483125
26.546145
26.610277
26.675545
26.741970
26.809561
26.878316
26.948225
27.019270
27.091422
27.164631
27.238827
27.313911
27.389759
27.466216
27.543088
27.620122
27.697002
27.773335
27.848642
27.922339
27.993716
28.061916
28.125937
28.184650
28.236845
28.281316
28.316927
28.342997
28.359060
28.364469
21.729244
21.730206
21.733084
21.737863
21.744517
21.753014
21.763312
21.775361
21.789107
21.804489
21.821445
21.839909
21.859814
21.881092
21.903676
21.927501
21.952502
21.978617
22.005787
22.033952
22.063058
22.093051
22.123883
22.155505
22.187872
22.220942
22.254673
22.289028
22.323971
22.359467
22.395485
22.431994
22.468965
22.506373
22.544191
22.582395
22.620964
22.659877
22.699112
22.738653
22.778481
22.818580
22.858933
22.899528
22.940349
22.981384
23.022621
23.064049
23.105655
23.147432
23.189368
23.231456
23.273685
23.316049
23.358541
23.401153
23.443878
23.486709
23.529643
23.572672
23.615792
23.658998
23.702285
23.745649
23.789088
23.832596
23.876172
23.919810
23.963510
24.007270
24.051088
24.094962
24.138891
24.182874
24.226912
24.271006
24.315155
24.359361
24.403626
24.447953
24.492345
24.536807
24.581343
24.625957
24.670656
24.715450
24.760345
24.805351
24.850477
24.895733
24.941135
24.986697
25.032432
25.078355
25.124484
25.170840
25.217442
25.264313
25.311475
25.358951
25.406768
25.454955
25.503541
25.552556
25.602029
25.651994
25.702486
25.753543
25.805201
25.857495
25.910462
25.964143
26.018580
26.073814
26.129882
26.186823
26.244676
26.303481
26.363278
26.424103
26.485985
26.548954
26.613036
26.678258
26.744637
26.812181
26.880890
26.950754
27.021756
27.093867
27.167036
27.241191
27.316235
27.392045
27.468469
27.545307
27.622309
27.699155
27.775457
27.850736
27.924409
27.995763
28.063941
28.127941
28.186635
28.238820
28.283299
28.318926
28.345095
28.361157
28.366548
21.749248
21.750193
21.753019
21.757712
21.764248
21.772596
21.782716
21.794561
21.808081
21.823217
21.839909
21.858094
21.877709
21.898688
21.920968
21.944483
21.969173
21.994976
22.021833
22.049688
22.078488
22.108178
22.138712
22.170040
22.202119
22.234906
22.268361
22.302445
22.337124
22.372362
22.408128
22.444391
22.481124
22.518299
22.555890
22.593874
22.632228
22.670932
22.709964
22.749307
22.788943
22.828854
22.869026
22.909444
22.950093
22.990961
23.032035
23.073304
23.114757
23.156383
23.198174
23.240118
23.282210
23.324439
23.366800
23.409283
23.451883
23.494593
23.537408
23.580322
23.623329
23.666424
23.709604
23.752863
23.796199
23.839607
23.883083
23.926625
23.970232
24.013900
24.057627
24.101412
24.145254
24.189152
24.233106
24.277118
24.321186
24.365312
24.409498
24.453748
24.498065
24.542452
24.586913
24.631454
24.676082
24.720805
24.765629
24.810565
24.855621
24.900810
24.946145
24.991639
25.037307
25.083163
25.129227
25.175518
25.222056
25.268863
25.315959
25.363371
25.411125
25.459249
25.507773
25.556724
25.606134
25.656037
25.706469
25.757465
25.809061
25.861293
25.914199
25.967821
26.022199
26.077373
26.133381
26.190262
26.248057
26.306806
26.366548
26.427316
26.489141
26.552054
26.616084
26.681254
26.747581
26.815073
26.883730
26.953545
27.024501
27.096567
27.169691
27.243801
27.318801
27.394571
27.470957
27.547758
27.624723
27.701533
27.777801
27.853050
27.926695
27.998022
28.066173
28.130147
28.188818
28.240984
28.285459
28.321100
28.347326
28.363331
28.368688
21.770751
21.771678
21.774450
21.779053
21.785467
21.793660
21.803597
21.815231
21.828516
21.843395
21.859813
21.877709
21.897021
21.917688
21.939648
21.962840
21.987202
22.012676
22.039205
22.066733
22.095208
22.124577
22.154793
22.185810
22.217582
22.250068
22.283227
22.317023
22.351418
22.386380
22.421877
22.457877
22.494353
22.531278
22.568625
22.606372
22.644495
22.682974
22.721787
22.760917
22.800345
22.840054
22.880030
22.920256
22.960719
23.001406
23.042304
23.083401
23.124687
23.166151
23.207783
23.249574
23.291515
23.333598
23.375816
23.418160
23.460625
23.503203
23.545889
23.588677
23.631561
23.674536
23.717599
23.760744
23.803968
23.847266
23.890635
23.934073
23.977577
24.021145
24.064773
24.108461
24.152208
24.196014
24.239877
24.283798
24.327778
24.371817
24.415918
24.460085
24.504318
24.548623
24.593003
24.637464
24.682014
24.726659
24.771407
24.816265
24.861246
24.906361
24.951623
24.997044
25.042638
25.088422
25.134414
25.180634
25.227102
25.273837
25.320863
25.368205
25.415890
25.463946
25.512400
25.561282
25.610624
25.660459
25.710824
25.761753
25.813281
25.865446
25.918286
25.971843
26.026156
26.081265
26.137207
26.194024
26.251756
26.310444
26.370123
26.430828
26.492592
26.555445
26.619417
26.684530
26.750801
26.818235
26.886836
26.956598
27.027504
27.099520
27.172594
27.246654
27.321607
27.397334
27.473679
27.550439
27.627362
27.704133
27.780365
27.855582
27.929196
28.000492
28.068611
28.132554
28.191197
28.243336
28.287792
28.323443
28.349660
28.365568
28.370884
21.793668
21.794576
21.797293
21.801806
21.808094
21.816129
21.825877
21.837296
21.850339
21.864955
21.881090
21.898687
21.917688
21.938032
21.959662
21.982516
22.006538
22.031669
22.057855
22.085041
22.113176
22.142208
22.172091
22.202779
22.234227
22.266395
22.299243
22.332732
22.366829
22.401498
22.436708
22.472428
22.508631
22.545289
22.582377
22.619871
22.657747
22.695985
22.734564
22.773466
22.812672
22.852166
22.891930
22.931952
22.972215
23.012708
23.053417
23.094330
23.135436
23.176725
23.218187
23.259813
23.301592
23.343518
23.385582
23.427777
23.470096
23.512532
23.555079
23.597731
23.640483
23.683329
23.726266
23.769287
23.812390
23.855570
23.898824
23.942149
23.985542
24.029001
24.072522
24.116106
24.159751
24.203456
24.247221
24.291044
24.334928
24.378874
24.422883
24.466958
24.511102
24.555317
24.599610
24.643986
24.688451
24.733011
24.777675
24.822451
24.867351
24.912386
24.957567
25.002907
25.048422
25.094128
25.140044
25.186187
25.232577
25.279235
25.326184
25.373452
25.421062
25.469043
25.517422
25.566228
25.615496
25.665260
25.715552
25.766407
25.817861
25.869953
25.922722
25.976209
26.030451
26.085488
26.141359
26.198107
26.255771
26.314391
26.374002
26.434640
26.496337
26.559126
26.623035
26.688086
26.754293
26.821666
26.890207
26.959913
27.030763
27.102724
27.175743
27.249750
27.324654
27.400334
27.476633
27.553348
27.630226
27.706956
27.783150
27.858331
27.931910
28.003170
28.071253
28.135162
28.193772
28.245879
28.290300
28.325955
28.352091
28.367882
28.373152
21.817917
21.818806
21.821468
21.825888
21.832050
21.839925
21.849482
21.860681
21.873479
21.887827
21.903674
21.920966
21.939647
21.959661
21.980950
22.003458
22.027128
22.051906
22.077737
22.104568
22.132349
22.161031
22.190566
22.220911
22.252021
22.283856
22.316376
22.349544
22.383325
22.417686
22.452595
22.488020
22.523935
22.560312
22.597125
22.634350
22.671966
22.709949
22.748280
22.786940
22.825910
22.865173
22.904714
22.944518
22.984569
23.024855
23.065362
23.106079
23.146994
23.188097
23.229378
23.270826
23.312433
23.354191
23.396091
23.438126
23.480289
23.522572
23.564971
23.607478
23.650088
23.692796
23.735597
23.778486
23.821459
23.864513
23.907643
23.950847
23.994121
24.037463
24.080871
24.124343
24.167878
24.211475
24.255133
24.298852
24.342634
24.386479
24.430389
24.474366
24.518412
24.562533
24.606732
24.651016
24.695389
24.739858
24.784432
24.829120
24.873932
24.918880
24.963974
25.009228
25.054658
25.100281
25.146113
25.192172
25.238478
25.285054
25.331922
25.379109
25.426638
25.474537
25.522835
25.571562
25.620751
25.670435
25.720647
25.771423
25.822798
25.874813
25.927506
25.980915
26.035080
26.090039
26.145835
26.202509
26.260100
26.318646
26.378183
26.438748
26.500374
26.563095
26.626936
26.691918
26.758057
26.825364
26.893843
26.963487
27.034277
27.106177
27.179137
27.253088
27.327940
27.403570
27.479818
27.556483
27.633314
27.710000
27.786154
27.861296
27.934835
28.006054
28.074099
28.137972
28.196547
28.248616
28.292989
28.328632
28.354636
28.370309
28.375540
21.843420
21.844291
21.846896
21.851225
21.857258
21.864973
21.874337
21.885315
21.897866
21.911943
21.927498
21.944481
21.962838
21.982515
22.003458
22.025611
22.048922
22.073336
22.098802
22.125268
22.152684
22.181003
22.210179
22.240167
22.270926
22.302414
22.334594
22.367427
22.400880
22.434919
22.469511
22.504628
22.540241
22.576322
22.612847
22.649791
22.687131
22.724846
22.762916
22.801320
22.840041
22.879063
22.918368
22.957941
22.997767
23.037834
23.078128
23.118637
23.159350
23.200256
23.241343
23.282604
23.324028
23.365607
23.407334
23.449199
23.491195
23.533317
23.575558
23.617911
23.660370
23.702931
23.745587
23.788336
23.831172
23.874090
23.917089
23.960163
24.003310
24.046528
24.089814
24.133167
24.176584
24.220065
24.263610
24.307218
24.350891
24.394628
24.438431
24.482303
24.526247
24.570266
24.614365
24.658549
24.702824
24.747196
24.791674
24.836268
24.880986
24.925840
24.970841
25.016004
25.061344
25.106876
25.152618
25.198587
25.244805
25.291293
25.338074
25.385173
25.432615
25.480427
25.528638
25.577280
25.626384
25.675983
25.726110
25.776800
25.828092
25.880024
25.932634
25.985960
26.040042
26.094919
26.150635
26.207229
26.264741
26.323207
26.382665
26.443153
26.504704
26.567350
26.631117
26.696025
26.762092
26.829329
26.897741
26.967319
27.038043
27.109878
27.182776
27.256669
27.331464
27.407038
27.483232
27.559844
27.636626
27.713266
27.789375
27.864473
27.937968
28.009145
28.077150
28.140984
28.199522
28.251550
28.295868
28.331474
28.357335
28.372921
28.378134
21.870102
21.870954
21.873504
21.877740
21.883647
21.891200
21.900373
21.911129
21.923432
21.937237
21.952499
21.969170
21.987200
22.006536
22.027127
22.048921
22.071866
22.095911
22.121003
22.147095
22.174137
22.202084
22.230890
22.260511
22.290907
22.322038
22.353864
22.386351
22.419463
22.453166
22.487431
22.522226
22.557524
22.593298
22.629521
22.666171
22.703223
22.740658
22.778453
22.816590
22.855051
22.893818
22.932874
22.972205
23.011796
23.051632
23.091702
23.131992
23.172492
23.213189
23.254074
23.295137
23.336368
23.377759
23.419301
23.460986
23.502808
23.544759
23.586832
23.629022
23.671321
23.713726
23.756231
23.798830
23.841520
23.884295
23.927153
23.970090
24.013103
24.056190
24.099347
24.142572
24.185865
24.229224
24.272649
24.316139
24.359694
24.403317
24.447007
24.490768
24.534602
24.578513
24.622505
24.666583
24.710753
24.755023
24.799400
24.843892
24.888509
24.933264
24.978167
25.023233
25.068476
25.113912
25.159557
25.205431
25.251555
25.297949
25.344637
25.391642
25.438991
25.486710
25.534830
25.583381
25.632394
25.681901
25.731937
25.782538
25.833741
25.885584
25.938104
25.991341
26.045335
26.100126
26.155756
26.212265
26.269690
26.328071
26.387446
26.447852
26.509323
26.571889
26.635575
26.700405
26.766396
26.833560
26.901900
26.971406
27.042059
27.113825
27.186658
27.260489
27.335223
27.410737
27.486872
27.563429
27.640159
27.716750
27.792812
27.867861
27.941309
28.012442
28.080405
28.144199
28.202696
28.254685
28.298953
28.334494
28.360250
28.375831
28.381071
21.897892
21.898726
21.901220
21.905365
21.911145
21.918539
21.927520
21.938056
21.950111
21.963645
21.978614
21.994973
22.012674
22.031667
22.051904
22.073335
22.095910
22.119579
22.144293
22.170004
22.196665
22.224231
22.252658
22.281904
22.311928
22.342690
22.374154
22.406283
22.439042
22.472400
22.506325
22.540788
22.575759
22.611213
22.647124
22.683468
22.720222
22.757364
22.794873
22.832732
22.870920
22.909421
22.948218
22.987296
23.026640
23.066236
23.106070
23.146131
23.186407
23.226886
23.267558
23.308413
23.349441
23.390634
23.431983
23.473480
23.515118
23.556888
23.598786
23.640803
23.682935
23.725176
23.767519
23.809961
23.852497
23.895122
23.937832
23.980625
24.023496
24.066443
24.109463
24.152554
24.195716
24.238945
24.282243
24.325608
24.369040
24.412541
24.456112
24.499756
24.543474
24.587270
24.631149
24.675115
24.719175
24.763335
24.807604
24.851988
24.896500
24.941149
24.985948
25.030911
25.076050
25.121384
25.166927
25.212701
25.258725
25.305019
25.351607
25.398513
25.445763
25.493385
25.541408
25.589862
25.638777
25.688187
25.738127
25.788633
25.839741
25.891489
25.943914
25.997057
26.050958
26.105658
26.161196
26.217612
26.274947
26.333238
26.392525
26.452845
26.514229
26.576709
26.640310
26.705058
26.770969
26.838055
26.906316
26.975745
27.046323
27.118019
27.190783
27.264547
27.339216
27.414665
27.490739
27.567238
27.643914
27.720452
27.796461
27.871459
27.944858
28.015945
28.083864
28.147615
28.206070
28.258019
28.302251
28.337719
28.363452
28.379146
28.384454
21.926722
21.927538
21.929978
21.934032
21.939687
21.946923
21.955715
21.966033
21.977842
21.991106
22.005783
22.021830
22.039202
22.057853
22.077735
22.098801
22.121002
22.144292
22.168623
22.193948
22.220222
22.247402
22.275443
22.304306
22.333950
22.364336
22.395428
22.427190
22.459589
22.492591
22.526167
22.560286
22.594921
22.630045
22.665632
22.701660
22.738104
22.774943
22.812157
22.849726
22.887632
22.925857
22.964384
23.003199
23.042285
23.081630
23.121220
23.161042
23.201084
23.241335
23.281784
23.322422
23.363238
23.404224
23.445371
23.486670
23.528115
23.569697
23.611410
23.653248
23.695203
23.737271
23.779446
23.821723
23.864097
23.906563
23.949119
23.991759
24.034481
24.077281
24.120158
24.163108
24.206131
24.249225
24.292388
24.335621
24.378924
24.422297
24.465743
24.509262
24.552857
24.596532
24.640292
24.684141
24.728084
24.772129
24.816282
24.860554
24.904954
24.949492
24.994181
25.039034
25.084064
25.129290
25.174727
25.220394
25.266312
25.312500
25.358983
25.405784
25.452931
25.500450
25.548369
25.596719
25.645531
25.694839
25.744678
25.795083
25.846090
25.897737
25.950062
26.003106
26.056909
26.111511
26.166951
26.223270
26.280509
26.338706
26.397900
26.458127
26.519419
26.581808
26.645321
26.709982
26.775808
26.842810
26.910988
26.980336
27.050836
27.122457
27.195148
27.268840
27.343438
27.418820
27.494831
27.571270
27.647887
27.724368
27.800320
27.875265
27.948614
28.019653
28.087525
28.151229
28.209638
28.261548
28.305758
28.341165
28.366972
28.382818
28.388163
21.956529
21.957327
21.959713
21.963678
21.969211
21.976291
21.984896
21.994998
22.006564
22.019560
22.033947
22.049685
22.066730
22.085038
22.104565
22.125266
22.147094
22.170003
22.193948
22.218884
22.244767
22.271555
22.299206
22.327679
22.356937
22.386940
22.417653
22.449041
22.481070
22.513709
22.546926
22.580694
22.614983
22.649768
22.685023
22.720724
22.756849
22.793376
22.830284
22.867554
22.905167
22.943106
22.981354
23.019896
23.058716
23.097801
23.137136
23.176709
23.216509
23.256523
23.296741
23.337153
23.377748
23.418518
23.459454
23.500547
23.541791
23.583176
23.624697
23.666346
23.708117
23.750005
23.792003
23.834108
23.876312
23.918613
23.961006
24.003487
24.046052
24.088700
24.131426
24.174229
24.217106
24.260056
24.303079
24.346174
24.389341
24.432580
24.475893
24.519282
24.562748
24.606297
24.649931
24.693656
24.737476
24.781399
24.825433
24.869586
24.913868
24.958289
25.002862
25.047599
25.092515
25.137628
25.182952
25.228507
25.274312
25.320389
25.366761
25.413453
25.460490
25.507899
25.555709
25.603950
25.652654
25.701856