# vtk DataFile Version 3.0
Example structured points dataset
ASCII

DATASET STRUCTURED_POINTS
DIMENSIONS 151 151 2
ORIGIN 0 0 0
SPACING 0.005000 0.005000 0.005000

POINT_DATA 45602
SCALARS Transmembrane_Potential float 1
LOOKUP_TABLE default
4.972036
4.939271
4.840644
4.675461
4.442523
4.139867
3.762811
3.294501
2.674022
1.697888
-0.261196
-4.905025
-15.256818
-29.674401
-41.850991
-50.841969
-57.289670
-61.880563
-65.146684
-67.473514
-69.134750
-70.323612
-71.176431
-71.789558
-72.231253
-72.550015
-72.780405
-72.947123
-73.067875
-73.155386
-73.218825
-73.264814
-73.298142
-73.322282
-73.339753
-73.352383
-73.361503
-73.368078
-73.372811
-73.376212
-73.378651
-73.380397
-73.381644
-73.382532
-73.383164
-73.383612
-73.383929
-73.384153
-73.384311
-73.384422
-73.384499
-73.384554
-73.384591
-73.384618
-73.384636
-73.384649
-73.384657
-73.384663
-73.384667
-73.384670
-73.384672
-73.384673
-73.384674
-73.384675
-73.384675
-73.384676
-73.384676
-73.384676
-73.384676
-73.384676
-73.384676
-73.384676
-73.384676
-73.384676
-73.384676
-73.384676
-73.384676
-73.384676
-73.384676
-73.384676
-73.384676
-73.384676
-73.384676
-73.384676
-73.384676
-73.384676
-73.384676
-73.384676
-73.384676
-73.384676
-73.384676
-73.384676
-73.384676
-73.384676
-73.384676
-73.384676
-73.384676
-73.384676
-73.384676
-73.384676
-73.384676
-73.384676
-73.384676
-73.384676
-73.384676
-73.384676
-73.384676
-73.384676
-73.384676
-73.384676
-73.384676
-73.384676
-73.384676
-73.384676
-73.384676
-73.384676
-73.384676
-73.384676
-73.384676
-73.384676
-73.384676
-73.384677
-73.384677
-73.384677
-73.384677
-73.384677
-73.384677
-73.384677
-73.384677
-73.384677
-73.384677
-73.384678
-73.384678
-73.384678
-73.384678
-73.384678
-73.384679
-73.384679
-73.384679
-73.384679
-73.384680
-73.384680
-73.384680
-73.384681
-73.384681
-73.384681
-73.384681
-73.384681
-73.384681
-73.384681
-73.384681
4.939291
4.906478
4.807670
4.642200
4.408879
4.105690
3.727570
3.256279
2.626765
1.624004
-0.408349
-5.227508
-15.824947
-30.192314
-42.219368
-51.091957
-57.457749
-61.993597
-65.222941
-67.525167
-69.169885
-70.347609
-71.192887
-71.800884
-72.239077
-72.555437
-72.784173
-72.949748
-73.069708
-73.156669
-73.219724
-73.265444
-73.298584
-73.322593
-73.339970
-73.352536
-73.361610
-73.368153
-73.372864
-73.376249
-73.378677
-73.380415
-73.381656
-73.382541
-73.383170
-73.383616
-73.383932
-73.384155
-73.384312
-73.384423
-73.384500
-73.384554
-73.384592
-73.384618
-73.384636
-73.384649
-73.384657
-73.384663
-73.384667
-73.384670
-73.384672
-73.384673
-73.384674
-73.384675
-73.384675
-73.384676
-73.384676
-73.384676
-73.384676
-73.384676
-73.384676
-73.384676
-73.384676
-73.384676
-73.384676
-73.384676
-73.384676
-73.384676
-73.384676
-73.384676
-73.384676
-73.384676
-73.384676
-73.384676
-73.384676
-73.384676
-73.384676
-73.384676
-73.384676
-73.384676
-73.384676
-73.384676
-73.384676
-73.384676
-73.384676
-73.384676
-73.384676
-73.384676
-73.384676
-73.384676
-73.384676
-73.384676
-73.384676
-73.384676
-73.384676
-73.384676
-73.384676
-73.384676
-73.384676
-73.384676
-73.384676
-73.384676
-73.384676
-73.384676
-73.384676
-73.384676
-73.384676
-73.384676
-73.384676
-73.384676
-73.384676
-73.384677
-73.384677
-73.384677
-73.384677
-73.384677
-73.384677
-73.384677
-73.384677
-73.384677
-73.384677
-73.384678
-73.384678
-73.384678
-73.384678
-73.384678
-73.384679
-73.384679
-73.384679
-73.384679
-73.384680
-73.384680
-73.384680
-73.384680
-73.384681
-73.384681
-73.384681
-73.384681
-73.384681
-73.384681
-73.384681
4.840709
4.807689
4.708336
4.542012
4.307544
4.002675
3.620944
3.139358
2.479053
1.387339
-0.885179
-6.258967
-17.553491
-31.713636
-43.296249
-51.822915
-57.949776
-62.324930
-65.446792
-67.677037
-69.273374
-70.418434
-71.241555
-71.834455
-72.262313
-72.571571
-72.795406
-72.957587
-73.075189
-73.160507
-73.222416
-73.267333
-73.299911
-73.323524
-73.340625
-73.352995
-73.361932
-73.368379
-73.373022
-73.376360
-73.378754
-73.380469
-73.381694
-73.382567
-73.383188
-73.383629
-73.383941
-73.384161
-73.384316
-73.384425
-73.384502
-73.384555
-73.384592
-73.384618
-73.384636
-73.384649
-73.384657
-73.384663
-73.384667
-73.384670
-73.384672
-73.384673
-73.384674
-73.384675
-73.384675
-73.384676
-73.384676
-73.384676
-73.384676
-73.384676
-73.384676
-73.384676
-73.384676
-73.384676
-73.384676
-73.384676
-73.384676
-73.384676
-73.384676
-73.384676
-73.384676
-73.384676
-73.384676
-73.384676
-73.384676
-73.384676
-73.384676
-73.384676
-73.384676
-73.384676
-73.384676
-73.384676
-73.384676
-73.384676
-73.384676
-73.384676
-73.384676
-73.384676
-73.384676
-73.384676
-73.384676
-73.384676
-73.384676
-73.384676
-73.384676
-73.384676
-73.384676
-73.384676
-73.384676
-73.384676
-73.384676
-73.384676
-73.384676
-73.384676
-73.384676
-73.384676
-73.384676
-73.384676
-73.384676
-73.384676
-73.384676
-73.384676
-73.384677
-73.384677
-73.384677
-73.384677
-73.384677
-73.384677
-73.384677
-73.384677
-73.384677
-73.384678
-73.384678
-73.384678
-73.384678
-73.384678
-73.384679
-73.384679
-73.384679
-73.384679
-73.384680
-73.384680
-73.384680
-73.384680
-73.384681
-73.384681
-73.384681
-73.384681
-73.384681
-73.384681
-73.384681
4.675539
4.642218
4.542010
4.374311
4.137865
3.829626
3.439834
2.935399
2.209221
0.934567
-1.812835
-8.201907
-20.473584
-34.139313
-45.000281
-52.980470
-58.730863
-62.852371
-65.804101
-67.920072
-69.439380
-70.532294
-71.319956
-71.888635
-72.299880
-72.597695
-72.813620
-72.970315
-73.084100
-73.166755
-73.226801
-73.270414
-73.302076
-73.325046
-73.341695
-73.353747
-73.362460
-73.368749
-73.373281
-73.376541
-73.378881
-73.380557
-73.381755
-73.382610
-73.383218
-73.383649
-73.383955
-73.384171
-73.384323
-73.384430
-73.384505
-73.384557
-73.384594
-73.384619
-73.384637
-73.384649
-73.384658
-73.384664
-73.384668
-73.384670
-73.384672
-73.384673
-73.384674
-73.384675
-73.384675
-73.384676
-73.384676
-73.384676
-73.384676
-73.384676
-73.384676
-73.384676
-73.384676
-73.384676
-73.384676
-73.384676
-73.384676
-73.384676
-73.384676
-73.384676
-73.384676
-73.384676
-73.384676
-73.384676
-73.384676
-73.384676
-73.384676
-73.384676
-73.384676
-73.384676
-73.384676
-73.384676
-73.384676
-73.384676
-73.384676
-73.384676
-73.384676
-73.384676
-73.384676
-73.384676
-73.384676
-73.384676
-73.384676
-73.384676
-73.384676
-73.384676
-73.384676
-73.384676
-73.384676
-73.384676
-73.384676
-73.384676
-73.384676
-73.384676
-73.384676
-73.384676
-73.384676
-73.384676
-73.384676
-73.384676
-73.384676
-73.384676
-73.384676
-73.384677
-73.384677
-73.384677
-73.384677
-73.384677
-73.384677
-73.384677
-73.384677
-73.384677
-73.384678
-73.384678
-73.384678
-73.384678
-73.384679
-73.384679
-73.384679
-73.384679
-73.384680
-73.384680
-73.384680
-73.384680
-73.384680
-73.384681
-73.384681
-73.384681
-73.384681
-73.384681
-73.384681
4.442580
4.408875
4.307522
4.137847
3.898070
3.582895
3.175439
2.622758
1.765156
0.144046
-3.444374
-11.407168
-24.521410
-37.302290
-47.206162
-54.481884
-59.747893
-63.541999
-66.273162
-68.240313
-69.658875
-70.683316
-71.424244
-71.960896
-72.350102
-72.632697
-72.838073
-72.987433
-73.096104
-73.175184
-73.232725
-73.274581
-73.305008
-73.327109
-73.343146
-73.354767
-73.363177
-73.369253
-73.373634
-73.376788
-73.379054
-73.380678
-73.381840
-73.382668
-73.383259
-73.383678
-73.383975
-73.384184
-73.384332
-73.384436
-73.384509
-73.384560
-73.384596
-73.384621
-73.384638
-73.384650
-73.384658
-73.384664
-73.384668
-73.384670
-73.384672
-73.384673
-73.384674
-73.384675
-73.384675
-73.384676
-73.384676
-73.384676
-73.384676
-73.384676
-73.384676
-73.384676
-73.384676
-73.384676
-73.384676
-73.384676
-73.384676
-73.384676
-73.384676
-73.384676
-73.384676
-73.384676
-73.384676
-73.384676
-73.384676
-73.384676
-73.384676
-73.384676
-73.384676
-73.384676
-73.384676
-73.384676
-73.384676
-73.384676
-73.384676
-73.384676
-73.384676
-73.384676
-73.384676
-73.384676
-73.384676
-73.384676
-73.384676
-73.384676
-73.384676
-73.384676
-73.384676
-73.384676
-73.384676
-73.384676
-73.384676
-73.384676
-73.384676
-73.384676
-73.384676
-73.384676
-73.384676
-73.384676
-73.384676
-73.384676
-73.384676
-73.384676
-73.384676
-73.384676
-73.384677
-73.384677
-73.384677
-73.384677
-73.384677
-73.384677
-73.384677
-73.384677
-73.384678
-73.384678
-73.384678
-73.384678
-73.384678
-73.384679
-73.384679
-73.384679
-73.384679
-73.384680
-73.384680
-73.384680
-73.384680
-73.384681
-73.384681
-73.384681
-73.384681
-73.384681
-73.384681
4.139875
4.105646
4.002621
3.829583
3.582872
3.251622
2.803941
2.148177
1.028296
-1.237005
-6.238454
-16.235215
-29.461614
-40.980062
-49.760065
-56.226645
-60.936145
-64.352217
-66.827164
-68.620400
-69.920560
-70.864104
-71.549553
-72.048016
-72.410840
-72.675146
-72.867804
-73.008295
-73.110764
-73.185497
-73.239987
-73.279697
-73.308613
-73.329649
-73.344935
-73.356027
-73.364063
-73.369875
-73.374071
-73.377095
-73.379268
-73.380828
-73.381944
-73.382741
-73.383309
-73.383713
-73.383999
-73.384201
-73.384344
-73.384444
-73.384515
-73.384564
-73.384598
-73.384622
-73.384639
-73.384651
-73.384659
-73.384664
-73.384668
-73.384670
-73.384672
-73.384673
-73.384674
-73.384675
-73.384675
-73.384675
-73.384676
-73.384676
-73.384676
-73.384676
-73.384676
-73.384676
-73.384676
-73.384676
-73.384676
-73.384676
-73.384676
-73.384676
-73.384676
-73.384676
-73.384676
-73.384676
-73.384676
-73.384676
-73.384676
-73.384676
-73.384676
-73.384676
-73.384676
-73.384676
-73.384676
-73.384676
-73.384676
-73.384676
-73.384676
-73.384676
-73.384676
-73.384676
-73.384676
-73.384676
-73.384676
-73.384676
-73.384676
-73.384676
-73.384676
-73.384676
-73.384676
-73.384676
-73.384676
-73.384676
-73.384676
-73.384676
-73.384676
-73.384676
-73.384676
-73.384676
-73.384676
-73.384676
-73.384676
-73.384676
-73.384676
-73.384676
-73.384676
-73.384676
-73.384676
-73.384677
-73.384677
-73.384677
-73.384677
-73.384677
-73.384677
-73.384677
-73.384677
-73.384678
-73.384678
-73.384678
-73.384678
-73.384679
-73.384679
-73.384679
-73.384679
-73.384680
-73.384680
-73.384680
-73.384680
-73.384680
-73.384680
-73.384681
-73.384681
-73.384681
-73.384681
3.762751
3.727477
3.620854
3.439762
3.175390
2.803917
2.261801
1.381607
-0.266766
-3.711083
-10.867502
-22.614348
-34.923936
-44.925382
-52.499188
-58.108697
-62.226809
-65.238348
-67.437009
-69.041302
-70.211929
-71.066402
-71.690407
-72.146347
-72.479651
-72.723402
-72.901707
-73.032151
-73.127571
-73.197350
-73.248351
-73.285601
-73.312781
-73.332591
-73.347010
-73.357490
-73.365093
-73.370600
-73.374581
-73.377452
-73.379519
-73.381003
-73.382066
-73.382826
-73.383368
-73.383754
-73.384027
-73.384221
-73.384357
-73.384453
-73.384521
-73.384568
-73.384601
-73.384624
-73.384640
-73.384651
-73.384659
-73.384664
-73.384668
-73.384671
-73.384672
-73.384673
-73.384674
-73.384675
-73.384675
-73.384675
-73.384676
-73.384676
-73.384676
-73.384676
-73.384676
-73.384676
-73.384676
-73.384676
-73.384676
-73.384676
-73.384676
-73.384676
-73.384676
-73.384676
-73.384676
-73.384676
-73.384676
-73.384676
-73.384676
-73.384676
-73.384676
-73.384676
-73.384676
-73.384676
-73.384676
-73.384676
-73.384676
-73.384676
-73.384676
-73.384676
-73.384676
-73.384676
-73.384676
-73.384676
-73.384676
-73.384676
-73.384676
-73.384676
-73.384676
-73.384676
-73.384676
-73.384676
-73.384676
-73.384676
-73.384676
-73.384676
-73.384676
-73.384676
-73.384676
-73.384676
-73.384676
-73.384676
-73.384676
-73.384676
-73.384676
-73.384676
-73.384676
-73.384676
-73.384676
-73.384676
-73.384677
-73.384677
-73.384677
-73.384677
-73.384677
-73.384677
-73.384677
-73.384678
-73.384678
-73.384678
-73.384678
-73.384678
-73.384679
-73.384679
-73.384679
-73.384679
-73.384680
-73.384680
-73.384680
-73.384680
-73.384680
-73.384680
-73.384680
-73.384680
-73.384680
3.294369
3.256139
3.139234
2.935299
2.622685
2.148130
1.381584
0.009072
-2.694180
-8.158587
-17.861561
-29.850974
-40.506007
-48.901838
-55.270834
-60.027929
-63.554064
-66.157020
-68.074036
-69.484021
-70.520346
-71.281774
-71.841154
-72.252089
-72.553970
-72.775727
-72.938603
-73.058199
-73.145978
-73.210366
-73.257559
-73.292115
-73.317389
-73.335850
-73.349313
-73.359116
-73.366241
-73.371409
-73.375150
-73.377852
-73.379799
-73.381199
-73.382204
-73.382922
-73.383435
-73.383800
-73.384059
-73.384243
-73.384373
-73.384464
-73.384528
-73.384573
-73.384605
-73.384627
-73.384642
-73.384652
-73.384660
-73.384665
-73.384668
-73.384671
-73.384672
-73.384673
-73.384674
-73.384675
-73.384675
-73.384675
-73.384675
-73.384676
-73.384676
-73.384676
-73.384676
-73.384676
-73.384676
-73.384676
-73.384676
-73.384676
-73.384676
-73.384676
-73.384676
-73.384676
-73.384676
-73.384676
-73.384676
-73.384676
-73.384676
-73.384676
-73.384676
-73.384676
-73.384676
-73.384676
-73.384676
-73.384676
-73.384676
-73.384676
-73.384676
-73.384676
-73.384676
-73.384676
-73.384676
-73.384676
-73.384676
-73.384676
-73.384676
-73.384676
-73.384676
-73.384676
-73.384676
-73.384676
-73.384676
-73.384676
-73.384676
-73.384676
-73.384676
-73.384676
-73.384676
-73.384676
-73.384676
-73.384676
-73.384676
-73.384676
-73.384676
-73.384676
-73.384676
-73.384676
-73.384676
-73.384676
-73.384676
-73.384676
-73.384677
-73.384677
-73.384677
-73.384677
-73.384677
-73.384677
-73.384678
-73.384678
-73.384678
-73.384678
-73.384678
-73.384679
-73.384679
-73.384679
-73.384679
-73.384680
-73.384680
-73.384680
-73.384680
-73.384680
-73.384680
-73.384680
-73.384680
2.673828
2.626586
2.478899
2.209094
1.765057
1.028222
-0.266819
-2.694211
-7.350304
-15.552375
-26.517615
-37.109028
-45.863055
-52.712274
-57.947124
-61.899054
-64.860652
-67.069712
-68.712300
-69.931055
-70.833982
-71.502211
-71.996356
-72.361541
-72.631275
-72.830399
-72.977310
-73.085628
-73.165427
-73.224161
-73.267346
-73.299057
-73.322312
-73.339338
-73.351784
-73.360864
-73.367476
-73.372280
-73.375764
-73.378284
-73.380103
-73.381412
-73.382352
-73.383026
-73.383507
-73.383850
-73.384094
-73.384267
-73.384389
-73.384475
-73.384536
-73.384578
-73.384608
-73.384629
-73.384643
-73.384653
-73.384660
-73.384665
-73.384669
-73.384671
-73.384672
-73.384673
-73.384674
-73.384675
-73.384675
-73.384675
-73.384675
-73.384675
-73.384676
-73.384676
-73.384676
-73.384676
-73.384676
-73.384676
-73.384676
-73.384676
-73.384676
-73.384676
-73.384676
-73.384676
-73.384676
-73.384676
-73.384676
-73.384676
-73.384676
-73.384676
-73.384676
-73.384676
-73.384676
-73.384676
-73.384676
-73.384676
-73.384676
-73.384676
-73.384676
-73.384676
-73.384676
-73.384676
-73.384676
-73.384676
-73.384676
-73.384676
-73.384676
-73.384676
-73.384676
-73.384676
-73.384676
-73.384676
-73.384676
-73.384676
-73.384676
-73.384676
-73.384676
-73.384676
-73.384676
-73.384676
-73.384676
-73.384676
-73.384676
-73.384676
-73.384676
-73.384676
-73.384676
-73.384676
-73.384676
-73.384676
-73.384676
-73.384676
-73.384676
-73.384677
-73.384677
-73.384677
-73.384677
-73.384677
-73.384677
-73.384678
-73.384678
-73.384678
-73.384678
-73.384678
-73.384679
-73.384679
-73.384679
-73.384679
-73.384679
-73.384680
-73.384680
-73.384680
-73.384680
-73.384680
-73.384680
1.697641
1.623791
1.387153
0.934406
0.143909
-1.237123
-3.711186
-8.158674
-15.552427
-25.366507
-35.261509
-43.818636
-50.758071
-56.215749
-60.433558
-63.656860
-66.101357
-67.945106
-69.330150
-70.367460
-71.142532
-71.720605
-72.151112
-72.471322
-72.709229
-72.885799
-73.016710
-73.113661
-73.185379
-73.238363
-73.277452
-73.306247
-73.327424
-73.342970
-73.354361
-73.362691
-73.368770
-73.373195
-73.376410
-73.378739
-73.380423
-73.381637
-73.382510
-73.383136
-73.383584
-73.383904
-73.384131
-73.384293
-73.384407
-73.384488
-73.384544
-73.384584
-73.384612
-73.384632
-73.384645
-73.384655
-73.384661
-73.384666
-73.384669
-73.384671
-73.384672
-73.384673
-73.384674
-73.384675
-73.384675
-73.384675
-73.384675
-73.384675
-73.384675
-73.384675
-73.384675
-73.384675
-73.384675
-73.384675
-73.384675
-73.384675
-73.384676
-73.384676
-73.384676
-73.384676
-73.384676
-73.384676
-73.384676
-73.384676
-73.384675
-73.384675
-73.384675
-73.384675
-73.384675
-73.384675
-73.384675
-73.384675
-73.384675
-73.384675
-73.384675
-73.384675
-73.384676
-73.384676
-73.384676
-73.384676
-73.384676
-73.384676
-73.384676
-73.384676
-73.384676
-73.384676
-73.384676
-73.384676
-73.384676
-73.384676
-73.384676
-73.384676
-73.384676
-73.384676
-73.384676
-73.384676
-73.384676
-73.384676
-73.384676
-73.384676
-73.384676
-73.384676
-73.384676
-73.384676
-73.384676
-73.384676
-73.384676
-73.384676
-73.384676
-73.384676
-73.384677
-73.384677
-73.384677
-73.384677
-73.384677
-73.384677
-73.384678
-73.384678
-73.384678
-73.384678
-73.384678
-73.384679
-73.384679
-73.384679
-73.384679
-73.384679
-73.384679
-73.384680
-73.384680
-73.384680
-73.384680
-0.261524
-0.408620
-0.885430
-1.813070
-3.444594
-6.238665
-10.867701
-17.861725
-26.517715
-35.261549
-43.096532
-49.695847
-55.062290
-59.329462
-62.670592
-65.257668
-67.244285
-68.760133
-69.911048
-70.781459
-71.437652
-71.931068
-72.301276
-72.578518
-72.785785
-72.940494
-73.055795
-73.141594
-73.205340
-73.252623
-73.287636
-73.313514
-73.332606
-73.346661
-73.356988
-73.364558
-73.370094
-73.374133
-73.377073
-73.379207
-73.380753
-73.381869
-73.382673
-73.383250
-73.383664
-73.383959
-73.384170
-73.384319
-73.384425
-73.384500
-73.384553
-73.384590
-73.384616
-73.384634
-73.384647
-73.384656
-73.384662
-73.384666
-73.384669
-73.384671
-73.384672
-73.384673
-73.384674
-73.384674
-73.384675
-73.384675
-73.384675
-73.384675
-73.384675
-73.384675
-73.384675
-73.384675
-73.384675
-73.384675
-73.384675
-73.384675
-73.384675
-73.384675
-73.384675
-73.384675
-73.384675
-73.384675
-73.384675
-73.384675
-73.384675
-73.384675
-73.384675
-73.384675
-73.384675
-73.384675
-73.384675
-73.384675
-73.384675
-73.384675
-73.384675
-73.384675
-73.384675
-73.384675
-73.384675
-73.384675
-73.384675
-73.384675
-73.384675
-73.384675
-73.384675
-73.384675
-73.384675
-73.384675
-73.384675
-73.384675
-73.384675
-73.384675
-73.384675
-73.384675
-73.384675
-73.384675
-73.384675
-73.384675
-73.384676
-73.384676
-73.384676
-73.384676
-73.384676
-73.384676
-73.384676
-73.384676
-73.384676
-73.384676
-73.384676
-73.384676
-73.384676
-73.384677
-73.384677
-73.384677
-73.384677
-73.384677
-73.384677
-73.384678
-73.384678
-73.384678
-73.384678
-73.384678
-73.384679
-73.384679
-73.384679
-73.384679
-73.384679
-73.384679
-73.384679
-73.384679
-73.384679
-4.905521
-5.227941
-6.259383
-8.202309
-11.407554
-16.235566
-22.614629
-29.851167
-37.109143
-43.818694
-49.695868
-54.656771
-58.734431
-62.020727
-64.629934
-66.677716
-68.270300
-69.499899
-70.443684
-71.164620
-71.713139
-72.129080
-72.443579
-72.680775
-72.859259
-72.993280
-73.093709
-73.168818
-73.224878
-73.266637
-73.297679
-73.320706
-73.337750
-73.350336
-73.359609
-73.366425
-73.371422
-73.375076
-73.377741
-73.379680
-73.381086
-73.382103
-73.382838
-73.383366
-73.383745
-73.384016
-73.384209
-73.384347
-73.384444
-73.384513
-73.384562
-73.384596
-73.384620
-73.384637
-73.384649
-73.384657
-73.384663
-73.384667
-73.384669
-73.384671
-73.384672
-73.384673
-73.384674
-73.384674
-73.384675
-73.384675
-73.384675
-73.384675
-73.384675
-73.384675
-73.384675
-73.384675
-73.384675
-73.384675
-73.384675
-73.384675
-73.384675
-73.384675
-73.384675
-73.384675
-73.384675
-73.384675
-73.384675
-73.384675
-73.384675
-73.384675
-73.384675
-73.384675
-73.384675
-73.384675
-73.384675
-73.384675
-73.384675
-73.384675
-73.384675
-73.384675
-73.384675
-73.384675
-73.384675
-73.384675
-73.384675
-73.384675
-73.384675
-73.384675
-73.384675
-73.384675
-73.384675
-73.384675
-73.384675
-73.384675
-73.384675
-73.384675
-73.384675
-73.384675
-73.384675
-73.384675
-73.384675
-73.384675
-73.384675
-73.384675
-73.384675
-73.384675
-73.384676
-73.384676
-73.384676
-73.384676
-73.384676
-73.384676
-73.384676
-73.384676
-73.384676
-73.384676
-73.384677
-73.384677
-73.384677
-73.384677
-73.384677
-73.384677
-73.384678
-73.384678
-73.384678
-73.384678
-73.384678
-73.384679
-73.384679
-73.384679
-73.384679
-73.384679
-73.384679
-73.384679
-73.384679
-15.257577
-15.825662
-17.554145
-20.474163
-24.521887
-29.461980
-34.924198
-40.506182
-45.863163
-50.758132
-55.062319
-58.734442
-61.793563
-64.294299
-66.307918
-67.909667
-69.171222
-70.156785
-70.921565
-71.511689
-71.964881
-72.311494
-72.575652
-72.776333
-72.928354
-73.043208
-73.129763
-73.194832
-73.243633
-73.280145
-73.307398
-73.327689
-73.342761
-73.353927
-73.362178
-73.368260
-73.372730
-73.376006
-73.378402
-73.380148
-73.381417
-73.382337
-73.383002
-73.383481
-73.383825
-73.384072
-73.384248
-73.384374
-73.384463
-73.384526
-73.384571
-73.384602
-73.384624
-73.384640
-73.384651
-73.384658
-73.384664
-73.384667
-73.384670
-73.384671
-73.384673
-73.384673
-73.384674
-73.384674
-73.384675
-73.384675
-73.384675
-73.384675
-73.384675
-73.384675
-73.384675
-73.384675
-73.384675
-73.384675
-73.384675
-73.384675
-73.384675
-73.384675
-73.384675
-73.384675
-73.384675
-73.384675
-73.384675
-73.384675
-73.384675
-73.384675
-73.384675
-73.384675
-73.384675
-73.384675
-73.384675
-73.384675
-73.384675
-73.384675
-73.384675
-73.384675
-73.384675
-73.384675
-73.384675
-73.384675
-73.384675
-73.384675
-73.384675
-73.384675
-73.384675
-73.384675
-73.384675
-73.384675
-73.384675
-73.384675
-73.384675
-73.384675
-73.384675
-73.384675
-73.384675
-73.384675
-73.384675
-73.384675
-73.384675
-73.384675
-73.384675
-73.384675
-73.384675
-73.384675
-73.384675
-73.384676
-73.384676
-73.384676
-73.384676
-73.384676
-73.384676
-73.384676
-73.384676
-73.384676
-73.384677
-73.384677
-73.384677
-73.384677
-73.384677
-73.384678
-73.384678
-73.384678
-73.384678
-73.384678
-73.384678
-73.384679
-73.384679
-73.384679
-73.384679
-73.384679
-73.384679
-29.675135
-30.192999
-31.714240
-34.139818
-37.302688
-40.980360
-44.925593
-48.901981
-52.712365
-56.215804
-59.329491
-62.020741
-64.294304
-66.179288
-67.718119
-68.958382
-69.947411
-70.729091
-71.342262
-71.820181
-72.190640
-72.476433
-72.695982
-72.864008
-72.992159
-73.089589
-73.163439
-73.219255
-73.261323
-73.292942
-73.316641
-73.334356
-73.347562
-73.357378
-73.364654
-73.370033
-73.373997
-73.376910
-73.379045
-73.380605
-73.381741
-73.382566
-73.383163
-73.383595
-73.383905
-73.384128
-73.384287
-73.384401
-73.384482
-73.384539
-73.384580
-73.384609
-73.384629
-73.384643
-73.384653
-73.384660
-73.384664
-73.384668
-73.384670
-73.384672
-73.384673
-73.384673
-73.384674
-73.384674
-73.384674
-73.384675
-73.384675
-73.384675
-73.384675
-73.384675
-73.384675
-73.384675
-73.384675
-73.384675
-73.384675
-73.384675
-73.384675
-73.384675
-73.384675
-73.384675
-73.384675
-73.384675
-73.384675
-73.384675
-73.384675
-73.384675
-73.384675
-73.384675
-73.384675
-73.384675
-73.384675
-73.384675
-73.384675
-73.384675
-73.384675
-73.384675
-73.384675
-73.384675
-73.384675
-73.384675
-73.384675
-73.384675
-73.384675
-73.384675
-73.384675
-73.384675
-73.384675
-73.384675
-73.384675
-73.384675
-73.384675
-73.384675
-73.384675
-73.384675
-73.384675
-73.384675
-73.384675
-73.384675
-73.384675
-73.384675
-73.384675
-73.384675
-73.384675
-73.384675
-73.384675
-73.384675
-73.384675
-73.384676
-73.384676
-73.384676
-73.384676
-73.384676
-73.384676
-73.384676
-73.384676
-73.384677
-73.384677
-73.384677
-73.384677
-73.384677
-73.384678
-73.384678
-73.384678
-73.384678
-73.384678
-73.384678
-73.384678
-73.384678
-73.384679
-73.384679
-73.384679
-41.851575
-42.219889
-43.296709
-45.000663
-47.206461
-49.760289
-52.499349
-55.270944
-57.947196
-60.433602
-62.670617
-64.629947
-66.307923
-67.718121
-68.884649
-69.836813
-70.605270
-71.219529
-71.706507
-72.089848
-72.389752
-72.623108
-72.803811
-72.943132
-73.050121
-73.131979
-73.194391
-73.241819
-73.277745
-73.304874
-73.325296
-73.340622
-73.352090
-73.360644
-73.367005
-73.371721
-73.375207
-73.377776
-73.379662
-73.381044
-73.382053
-73.382787
-73.383319
-73.383705
-73.383982
-73.384182
-73.384325
-73.384427
-73.384500
-73.384552
-73.384589
-73.384615
-73.384633
-73.384646
-73.384655
-73.384661
-73.384665
-73.384668
-73.384670
-73.384672
-73.384673
-73.384673
-73.384674
-73.384674
-73.384674
-73.384675
-73.384675
-73.384675
-73.384675
-73.384675
-73.384675
-73.384675
-73.384675
-73.384675
-73.384675
-73.384675
-73.384675
-73.384675
-73.384675
-73.384675
-73.384675
-73.384675
-73.384675
-73.384675
-73.384675
-73.384675
-73.384675
-73.384675
-73.384675
-73.384675
-73.384675
-73.384675
-73.384675
-73.384675
-73.384675
-73.384675
-73.384675
-73.384675
-73.384675
-73.384675
-73.384675
-73.384675
-73.384675
-73.384675
-73.384675
-73.384675
-73.384675
-73.384675
-73.384675
-73.384675
-73.384675
-73.384675
-73.384675
-73.384675
-73.384675
-73.384675
-73.384675
-73.384675
-73.384675
-73.384675
-73.384675
-73.384675
-73.384675
-73.384675
-73.384675
-73.384675
-73.384675
-73.384675
-73.384676
-73.384676
-73.384676
-73.384676
-73.384676
-73.384676
-73.384676
-73.384676
-73.384677
-73.384677
-73.384677
-73.384677
-73.384677
-73.384677
-73.384678
-73.384678
-73.384678
-73.384678
-73.384678
-73.384678
-73.384678
-73.384678
-73.384678
-50.842424
-51.092338
-51.823250
-52.980747
-54.482100
-56.226807
-58.108813
-60.028009
-61.899106
-63.656892
-65.257686
-66.677725
-67.909671
-68.958383
-69.836813
-70.562519
-71.154994
-71.633782
-72.017290
-72.322118
-72.562768
-72.751612
-72.899004
-73.013482
-73.101996
-73.170150
-73.222421
-73.262361
-73.292769
-73.315839
-73.333283
-73.346428
-73.356300
-73.363691
-73.369205
-73.373306
-73.376346
-73.378592
-73.380246
-73.381461
-73.382349
-73.382997
-73.383468
-73.383810
-73.384056
-73.384234
-73.384362
-73.384453
-73.384518
-73.384564
-73.384597
-73.384620
-73.384637
-73.384648
-73.384656
-73.384662
-73.384666
-73.384669
-73.384671
-73.384672
-73.384673
-73.384673
-73.384674
-73.384674
-73.384674
-73.384674
-73.384675
-73.384675
-73.384675
-73.384675
-73.384675
-73.384675
-73.384675
-73.384675
-73.384675
-73.384675
-73.384675
-73.384675
-73.384675
-73.384675
-73.384675
-73.384675
-73.384675
-73.384675
-73.384675
-73.384675
-73.384675
-73.384675
-73.384675
-73.384675
-73.384675
-73.384675
-73.384675
-73.384675
-73.384675
-73.384675
-73.384675
-73.384675
-73.384675
-73.384675
-73.384675
-73.384675
-73.384675
-73.384675
-73.384675
-73.384675
-73.384675
-73.384675
-73.384675
-73.384675
-73.384675
-73.384675
-73.384675
-73.384675
-73.384675
-73.384675
-73.384675
-73.384675
-73.384675
-73.384675
-73.384675
-73.384675
-73.384675
-73.384675
-73.384675
-73.384675
-73.384675
-73.384675
-73.384675
-73.384675
-73.384676
-73.384676
-73.384676
-73.384676
-73.384676
-73.384676
-73.384676
-73.384677
-73.384677
-73.384677
-73.384677
-73.384677
-73.384677
-73.384678
-73.384678
-73.384678
-73.384678
-73.384678
-73.384678
-73.384678
-73.384678
-57.290014
-57.458021
-57.950011
-58.731056
-59.748042
-60.936256
-62.226888
-63.554118
-64.860687
-66.101378
-67.244296
-68.270305
-69.171223
-69.947411
-70.605269
-71.154993
-71.608743
-71.979285
-72.279050
-72.519561
-72.711119
-72.862691
-72.981914
-73.075187
-73.147796
-73.204058
-73.247462
-73.280810
-73.306328
-73.325782
-73.340556
-73.351735
-73.360164
-73.366497
-73.371238
-73.374775
-73.377405
-73.379353
-73.380792
-73.381851
-73.382627
-73.383195
-73.383609
-73.383909
-73.384126
-73.384283
-73.384396
-73.384477
-73.384535
-73.384576
-73.384605
-73.384626
-73.384641
-73.384651
-73.384658
-73.384663
-73.384667
-73.384669
-73.384671
-73.384672
-73.384673
-73.384673
-73.384674
-73.384674
-73.384674
-73.384674
-73.384674
-73.384675
-73.384675
-73.384675
-73.384675
-73.384675
-73.384675
-73.384675
-73.384675
-73.384675
-73.384675
-73.384675
-73.384675
-73.384675
-73.384675
-73.384675
-73.384675
-73.384675
-73.384675
-73.384675
-73.384675
-73.384675
-73.384675
-73.384675
-73.384675
-73.384675
-73.384675
-73.384675
-73.384675
-73.384675
-73.384675
-73.384675
-73.384675
-73.384675
-73.384675
-73.384675
-73.384675
-73.384675
-73.384675
-73.384675
-73.384675
-73.384675
-73.384675
-73.384675
-73.384675
-73.384675
-73.384675
-73.384675
-73.384675
-73.384675
-73.384675
-73.384675
-73.384675
-73.384675
-73.384675
-73.384675
-73.384675
-73.384675
-73.384675
-73.384675
-73.384675
-73.384675
-73.384675
-73.384675
-73.384675
-73.384676
-73.384676
-73.384676
-73.384676
-73.384676
-73.384676
-73.384676
-73.384677
-73.384677
-73.384677
-73.384677
-73.384677
-73.384677
-73.384677
-73.384678
-73.384678
-73.384678
-73.384678
-73.384678
-73.384678
-61.880800
-61.993776
-62.325084
-62.852496
-63.542094
-64.352287
-65.238397
-66.157052
-67.069732
-67.945116
-68.760137
-69.499899
-70.156783
-70.729089
-71.219526
-71.633780
-71.979284
-72.264257
-72.497003
-72.685438
-72.836807
-72.957549
-73.053244
-73.128645
-73.187733
-73.233804
-73.269555
-73.297173
-73.318415
-73.334685
-73.347097
-73.356528
-73.363666
-73.369049
-73.373093
-73.376119
-73.378376
-73.380054
-73.381296
-73.382212
-73.382885
-73.383379
-73.383739
-73.384002
-73.384192
-73.384329
-73.384429
-73.384500
-73.384551
-73.384587
-73.384613
-73.384631
-73.384644
-73.384653
-73.384660
-73.384664
-73.384667
-73.384670
-73.384671
-73.384672
-73.384673
-73.384673
-73.384674
-73.384674
-73.384674
-73.384674
-73.384674
-73.384674
-73.384674
-73.384674
-73.384674
-73.384675
-73.384675
-73.384675
-73.384675
-73.384675
-73.384675
-73.384675
-73.384675
-73.384675
-73.384675
-73.384675
-73.384675
-73.384675
-73.384675
-73.384675
-73.384674
-73.384674
-73.384674
-73.384674
-73.384674
-73.384674
-73.384674
-73.384674
-73.384674
-73.384674
-73.384674
-73.384674
-73.384675
-73.384675
-73.384675
-73.384675
-73.384675
-73.384675
-73.384675
-73.384675
-73.384675
-73.384675
-73.384675
-73.384675
-73.384675
-73.384675
-73.384675
-73.384675
-73.384675
-73.384675
-73.384675
-73.384675
-73.384675
-73.384675
-73.384675
-73.384675
-73.384675
-73.384675
-73.384675
-73.384675
-73.384675
-73.384675
-73.384675
-73.384675
-73.384675
-73.384675
-73.384676
-73.384676
-73.384676
-73.384676
-73.384676
-73.384676
-73.384676
-73.384677
-73.384677
-73.384677
-73.384677
-73.384677
-73.384677
-73.384677
-73.384677
-73.384677
-73.384678
-73.384678
-73.384678
-65.146814
-65.223040
-65.446880
-65.804173
-66.273216