# vtk DataFile Version 3.0
Example structured points dataset
ASCII

DATASET STRUCTURED_POINTS
DIMENSIONS 151 151 2
ORIGIN 0 0 0
SPACING 0.005000 0.005000 0.005000

POINT_DATA 45602
SCALARS Transmembrane_Potential float 1
LOOKUP_TABLE default
21.799596
21.798834
21.796559
21.792790
21.787326
21.779751
21.769625
21.756470
21.739759
21.718905
21.693276
21.662204
21.625003
21.580979
21.529443
21.469718
21.401143
21.323069
21.234870
21.135928
21.025623
20.903351
20.768495
20.620412
20.458444
20.281911
20.090069
19.882113
19.657203
19.414411
19.152688
18.870895
18.567804
18.242025
17.891978
17.515933
17.111995
16.678010
16.211503
15.709702
15.169462
14.586984
13.957314
13.273350
12.523221
11.683828
10.705520
9.473724
7.708205
4.708106
-1.182152
-12.666380
-28.010533
-40.800224
-50.226978
-56.980959
-61.775773
-65.167643
-67.563532
-69.254851
-70.448523
-71.290944
-71.885517
-72.305218
-72.601534
-72.810780
-72.958577
-73.062995
-73.136785
-73.188946
-73.225828
-73.251913
-73.270369
-73.283431
-73.292677
-73.299226
-73.303865
-73.307152
-73.309483
-73.311136
-73.312309
-73.313141
-73.313732
-73.314152
-73.314450
-73.314662
-73.314813
-73.314921
-73.314997
-73.315052
-73.315090
-73.315118
-73.315138
-73.315152
-73.315162
-73.315169
-73.315174
-73.315178
-73.315180
-73.315182
-73.315184
-73.315185
-73.315185
-73.315186
-73.315186
-73.315187
-73.315187
-73.315187
-73.315187
-73.315187
-73.315187
-73.315187
-73.315187
-73.315187
-73.315187
-73.315187
-73.315187
-73.315188
-73.315188
-73.315188
-73.315188
-73.315188
-73.315188
-73.315188
-73.315188
-73.315188
-73.315188
-73.315188
-73.315188
-73.315188
-73.315188
-73.315188
-73.315188
-73.315188
-73.315188
-73.315188
-73.315188
-73.315189
-73.315189
-73.315189
-73.315189
-73.315189
-73.315189
-73.315189
-73.315189
-73.315189
-73.315189
-73.315189
-73.315189
-73.315189
-73.315189
21.798835
21.798076
21.795809
21.792031
21.786525
21.778883
21.768673
21.755423
21.738605
21.717635
21.691881
21.660678
21.623339
21.579174
21.527493
21.467621
21.398897
21.320675
21.232327
21.133236
21.022784
20.900364
20.765360
20.617127
20.455010
20.278327
20.086329
19.878217
19.653146
19.410188
19.148291
18.866318
18.563039
18.237061
17.886803
17.510535
17.106361
16.672120
16.205338
15.703241
15.162680
14.579842
13.949758
13.265291
12.514493
11.674084
10.693997
9.458570
7.684820
4.665699
-1.265775
-12.810897
-28.147734
-40.902337
-50.299407
-57.031642
-61.811074
-65.192189
-67.580586
-69.266695
-70.456746
-71.296651
-71.889478
-72.307968
-72.603443
-72.812107
-72.959499
-73.063636
-73.137231
-73.189257
-73.226044
-73.252064
-73.270474
-73.283504
-73.292729
-73.299262
-73.303890
-73.307170
-73.309495
-73.311145
-73.312315
-73.313145
-73.313735
-73.314154
-73.314452
-73.314663
-73.314814
-73.314921
-73.314997
-73.315052
-73.315091
-73.315118
-73.315138
-73.315152
-73.315162
-73.315169
-73.315174
-73.315178
-73.315180
-73.315182
-73.315184
-73.315185
-73.315185
-73.315186
-73.315186
-73.315187
-73.315187
-73.315187
-73.315187
-73.315187
-73.315187
-73.315187
-73.315187
-73.315187
-73.315187
-73.315187
-73.315187
-73.315188
-73.315188
-73.315188
-73.315188
-73.315188
-73.315188
-73.315188
-73.315188
-73.315188
-73.315188
-73.315188
-73.315188
-73.315188
-73.315188
-73.315188
-73.315188
-73.315188
-73.315188
-73.315188
-73.315188
-73.315189
-73.315189
-73.315189
-73.315189
-73.315189
-73.315189
-73.315189
-73.315189
-73.315189
-73.315189
-73.315189
-73.315189
-73.315189
-73.315189
21.796561
21.795810
21.793552
21.789721
21.784073
21.776226
21.765767
21.752232
21.735097
21.713782
21.687657
21.656061
21.618312
21.573723
21.521608
21.461297
21.392131
21.313464
21.224673
21.125137
21.014241
20.891380
20.755932
20.607253
20.444689
20.267552
20.075092
19.866509
19.640957
19.397498
19.135080
18.852567
18.548723
18.222144
17.871249
17.494310
17.089422
16.654409
16.186793
15.683802
15.142269
14.558347
13.927023
13.241060
12.488264
11.644794
10.659289
9.412747
7.613869
4.536933
-1.519465
-13.246618
-28.557487
-41.206808
-50.515312
-57.182711
-61.916275
-65.265319
-67.631392
-69.301989
-70.481266
-71.313691
-71.901322
-72.316204
-72.609172
-72.816094
-72.962274
-73.065569
-73.138579
-73.190196
-73.226699
-73.252522
-73.270794
-73.283727
-73.292885
-73.299371
-73.303966
-73.307223
-73.309533
-73.311171
-73.312333
-73.313158
-73.313744
-73.314160
-73.314456
-73.314667
-73.314816
-73.314923
-73.314999
-73.315053
-73.315091
-73.315118
-73.315138
-73.315152
-73.315162
-73.315169
-73.315174
-73.315178
-73.315181
-73.315182
-73.315184
-73.315185
-73.315185
-73.315186
-73.315186
-73.315187
-73.315187
-73.315187
-73.315187
-73.315187
-73.315187
-73.315187
-73.315187
-73.315187
-73.315187
-73.315187
-73.315187
-73.315187
-73.315188
-73.315188
-73.315188
-73.315188
-73.315188
-73.315188
-73.315188
-73.315188
-73.315188
-73.315188
-73.315188
-73.315188
-73.315188
-73.315188
-73.315188
-73.315188
-73.315188
-73.315188
-73.315188
-73.315188
-73.315189
-73.315189
-73.315189
-73.315189
-73.315189
-73.315189
-73.315189
-73.315189
-73.315189
-73.315189
-73.315189
-73.315189
-73.315189
21.792793
21.792034
21.789722
21.785738
21.779826
21.771633
21.760763
21.746761
21.729106
21.707221
21.680485
21.648240
21.609813
21.564524
21.511694
21.450656
21.380756
21.301355
21.211828
21.111555
20.999926
20.876331
20.740145
20.590728
20.427421
20.249529
20.056298
19.846933
19.620578
19.376282
19.112997
18.829585
18.524796
18.197213
17.845257
17.467198
17.061112
16.624805
16.155798
15.651313
15.108152
14.522413
13.889007
13.200524
12.444338
11.595656
10.600861
9.335147
7.493059
4.317301
-1.951683
-13.979454
-29.234347
-41.708187
-50.870619
-57.431298
-62.089403
-65.385690
-67.715035
-69.360106
-70.521654
-71.341765
-71.920843
-72.329783
-72.618621
-72.822672
-72.966856
-73.068761
-73.140804
-73.191748
-73.227782
-73.253277
-73.271321
-73.284096
-73.293142
-73.299551
-73.304092
-73.307312
-73.309595
-73.311214
-73.312364
-73.313180
-73.313759
-73.314171
-73.314464
-73.314672
-73.314820
-73.314925
-73.315000
-73.315054
-73.315092
-73.315119
-73.315139
-73.315152
-73.315162
-73.315169
-73.315174
-73.315178
-73.315181
-73.315182
-73.315184
-73.315185
-73.315185
-73.315186
-73.315186
-73.315187
-73.315187
-73.315187
-73.315187
-73.315187
-73.315187
-73.315187
-73.315187
-73.315187
-73.315187
-73.315187
-73.315187
-73.315187
-73.315188
-73.315188
-73.315188
-73.315188
-73.315188
-73.315188
-73.315188
-73.315188
-73.315188
-73.315188
-73.315188
-73.315188
-73.315188
-73.315188
-73.315188
-73.315188
-73.315188
-73.315188
-73.315188
-73.315188
-73.315189
-73.315189
-73.315189
-73.315189
-73.315189
-73.315189
-73.315189
-73.315189
-73.315189
-73.315189
-73.315189
-73.315189
-73.315189
21.787330
21.786528
21.784076
21.779827
21.773532
21.764863
21.753433
21.738790
21.720419
21.697750
21.670169
21.637029
21.597666
21.551409
21.497589
21.435547
21.364633
21.284213
21.193665
21.092372
20.979723
20.855107
20.717896
20.567450
20.403106
20.224158
20.029855
19.819396
19.591914
19.346448
19.081950
18.797278
18.491160
18.162168
17.808725
17.429094
17.021321
16.583196
16.112236
15.605651
15.060191
14.471885
13.835533
13.143459
12.382410
11.526204
10.517845
9.223952
7.318765
3.999645
-2.576227
-15.016414
-30.168680
-42.397374
-51.358619
-57.772706
-62.327220
-65.551082
-67.829998
-69.440010
-70.577199
-71.380387
-71.947708
-72.348476
-72.631633
-72.831733
-72.973168
-73.073161
-73.143872
-73.193888
-73.229276
-73.254320
-73.272050
-73.284605
-73.293498
-73.299800
-73.304267
-73.307434
-73.309680
-73.311274
-73.312406
-73.313209
-73.313780
-73.314185
-73.314474
-73.314679
-73.314825
-73.314929
-73.315003
-73.315056
-73.315093
-73.315120
-73.315139
-73.315153
-73.315163
-73.315170
-73.315174
-73.315178
-73.315181
-73.315182
-73.315184
-73.315185
-73.315185
-73.315186
-73.315186
-73.315187
-73.315187
-73.315187
-73.315187
-73.315187
-73.315187
-73.315187
-73.315187
-73.315187
-73.315187
-73.315187
-73.315187
-73.315187
-73.315187
-73.315188
-73.315188
-73.315188
-73.315188
-73.315188
-73.315188
-73.315188
-73.315188
-73.315188
-73.315188
-73.315188
-73.315188
-73.315188
-73.315188
-73.315188
-73.315188
-73.315188
-73.315188
-73.315188
-73.315189
-73.315189
-73.315189
-73.315189
-73.315189
-73.315189
-73.315189
-73.315189
-73.315189
-73.315189
-73.315189
-73.315189
-73.315189
21.779756
21.778887
21.776230
21.771635
21.764864
21.755604
21.743472
21.728024
21.708750
21.685092
21.656444
21.622174
21.581628
21.534149
21.479077
21.415762
21.343564
21.261853
21.170009
21.067420
20.953473
20.827554
20.689037
20.537277
20.371604
20.191307
19.995631
19.783767
19.554834
19.307866
19.041811
18.755511
18.447676
18.116872
17.761516
17.379850
16.969893
16.529421
16.055945
15.546638
14.998191
14.406549
13.766356
13.069561
12.302070
11.435795
10.409006
9.076682
7.086242
3.574025
-3.413051
-16.362015
-31.346276
-43.261778
-51.970140
-58.200531
-62.625318
-65.758473
-67.974211
-69.540285
-70.646933
-71.428895
-71.981461
-72.371971
-72.647994
-72.843131
-72.981112
-73.078700
-73.147735
-73.196584
-73.231158
-73.255635
-73.272969
-73.285247
-73.293948
-73.300114
-73.304487
-73.307588
-73.309788
-73.311350
-73.312459
-73.313246
-73.313806
-73.314204
-73.314487
-73.314688
-73.314831
-73.314933
-73.315006
-73.315058
-73.315095
-73.315121
-73.315140
-73.315153
-73.315163
-73.315170
-73.315175
-73.315178
-73.315181
-73.315183
-73.315184
-73.315185
-73.315185
-73.315186
-73.315186
-73.315187
-73.315187
-73.315187
-73.315187
-73.315187
-73.315187
-73.315187
-73.315187
-73.315187
-73.315187
-73.315187
-73.315187
-73.315187
-73.315187
-73.315188
-73.315188
-73.315188
-73.315188
-73.315188
-73.315188
-73.315188
-73.315188
-73.315188
-73.315188
-73.315188
-73.315188
-73.315188
-73.315188
-73.315188
-73.315188
-73.315188
-73.315188
-73.315188
-73.315188
-73.315189
-73.315189
-73.315189
-73.315189
-73.315189
-73.315189
-73.315189
-73.315189
-73.315189
-73.315189
-73.315189
-73.315189
21.769631
21.768678
21.765771
21.760766
21.753435
21.743473
21.730507
21.714097
21.693746
21.668904
21.638981
21.603358
21.561398
21.512455
21.455885
21.391046
21.317306
21.234043
21.140640
21.036488
20.920974
20.793482
20.653383
20.500029
20.332741
20.150804
19.953456
19.739876
19.509171
19.260371
18.992410
18.704112
18.394172
18.061150
17.703446
17.319273
16.906630
16.463280
15.986709
15.474043
14.921901
14.326132
13.681162
12.978444
12.202794
11.323556
10.272658
8.890171
6.789323
3.025743
-4.491565
-18.014492
-32.748245
-44.285637
-52.693838
-58.706883
-62.978267
-66.004143
-68.145128
-69.659187
-70.729662
-71.486471
-72.021544
-72.399885
-72.667441
-72.856685
-72.990562
-73.085291
-73.152335
-73.199795
-73.233400
-73.257202
-73.274064
-73.286013
-73.294484
-73.300490
-73.304750
-73.307772
-73.309917
-73.311440
-73.312522
-73.313291
-73.313837
-73.314226
-73.314502
-73.314699
-73.314839
-73.314939
-73.315010
-73.315060
-73.315097
-73.315122
-73.315141
-73.315154
-73.315163
-73.315170
-73.315175
-73.315178
-73.315181
-73.315183
-73.315184
-73.315185
-73.315185
-73.315186
-73.315186
-73.315187
-73.315187
-73.315187
-73.315187
-73.315187
-73.315187
-73.315187
-73.315187
-73.315187
-73.315187
-73.315187
-73.315187
-73.315187
-73.315187
-73.315187
-73.315188
-73.315188
-73.315188
-73.315188
-73.315188
-73.315188
-73.315188
-73.315188
-73.315188
-73.315188
-73.315188
-73.315188
-73.315188
-73.315188
-73.315188
-73.315188
-73.315188
-73.315188
-73.315188
-73.315189
-73.315189
-73.315189
-73.315189
-73.315189
-73.315189
-73.315189
-73.315189
-73.315189
-73.315189
-73.315189
-73.315189
21.756477
21.755429
21.752237
21.746765
21.738793
21.728026
21.714098
21.696581
21.674987
21.648782
21.617390
21.580210
21.536620
21.485991
21.427690
21.361089
21.285567
21.200505
21.105293
20.999323
20.881984
20.752657
20.610710
20.455487
20.286306
20.102443
19.903124
19.687519
19.454725
19.203759
18.933538
18.642869
18.330437
17.994783
17.634284
17.247127
16.831292
16.384521
15.904259
15.387575
14.831017
14.230301
13.579562
12.869624
12.083883
11.188259
10.106543
8.660289
6.418690
2.330158
-5.856215
-19.963111
-34.351455
-45.450567
-53.516587
-59.282647
-63.379795
-66.283789
-68.339799
-69.794697
-70.824002
-71.552164
-72.067303
-72.431770
-72.689667
-72.872183
-73.001373
-73.092836
-73.157602
-73.203474
-73.235971
-73.258999
-73.275321
-73.286893
-73.295099
-73.300921
-73.305052
-73.307984
-73.310066
-73.311545
-73.312595
-73.313342
-73.313873
-73.314251
-73.314520
-73.314711
-73.314848
-73.314945
-73.315014
-73.315064
-73.315099
-73.315124
-73.315142
-73.315155
-73.315164
-73.315170
-73.315175
-73.315179
-73.315181
-73.315183
-73.315184
-73.315185
-73.315185
-73.315186
-73.315186
-73.315187
-73.315187
-73.315187
-73.315187
-73.315187
-73.315187
-73.315187
-73.315187
-73.315187
-73.315187
-73.315187
-73.315187
-73.315187
-73.315187
-73.315187
-73.315188
-73.315188
-73.315188
-73.315188
-73.315188
-73.315188
-73.315188
-73.315188
-73.315188
-73.315188
-73.315188
-73.315188
-73.315188
-73.315188
-73.315188
-73.315188
-73.315188
-73.315188
-73.315188
-73.315188
-73.315189
-73.315189
-73.315189
-73.315189
-73.315189
-73.315189
-73.315189
-73.315189
-73.315189
-73.315189
-73.315189
21.739766
21.738612
21.735104
21.729111
21.720423
21.708753
21.693748
21.674988
21.652002
21.624269
21.591232
21.552307
21.506890
21.454369
21.394125
21.325544
21.248012
21.160921
21.063665
20.955636
20.836225
20.704810
20.560754
20.403398
20.232050
20.045975
19.844391
19.626456
19.391254
19.137783
18.864947
18.571537
18.256218
17.917508
17.553757
17.163134
16.743594
16.292839
15.808268
15.286893
14.725176
14.118649
13.461078
12.742481
11.944372
11.028213
9.907681
8.380906
5.957891
1.445550
-7.568942
-22.187407
-36.129488
-46.736272
-54.423953
-59.917789
-63.822986
-66.592659
-68.554964
-69.944576
-70.928417
-71.624922
-72.118017
-72.467130
-72.714330
-72.889391
-73.013384
-73.101223
-73.163461
-73.207568
-73.238833
-73.261001
-73.276722
-73.287873
-73.295786
-73.301402
-73.305389
-73.308220
-73.310232
-73.311661
-73.312677
-73.313400
-73.313914
-73.314280
-73.314540
-73.314726
-73.314858
-73.314952
-73.315019
-73.315067
-73.315101
-73.315126
-73.315143
-73.315156
-73.315164
-73.315171
-73.315175
-73.315179
-73.315181
-73.315183
-73.315184
-73.315185
-73.315185
-73.315186
-73.315186
-73.315186
-73.315187
-73.315187
-73.315187
-73.315187
-73.315187
-73.315187
-73.315187
-73.315187
-73.315187
-73.315187
-73.315187
-73.315187
-73.315187
-73.315187
-73.315187
-73.315188
-73.315188
-73.315188
-73.315188
-73.315188
-73.315188
-73.315188
-73.315188
-73.315188
-73.315188
-73.315188
-73.315188
-73.315188
-73.315188
-73.315188
-73.315188
-73.315188
-73.315188
-73.315188
-73.315188
-73.315189
-73.315189
-73.315189
-73.315189
-73.315189
-73.315189
-73.315189
-73.315189
-73.315189
-73.315189
21.718913
21.717643
21.713789
21.707227
21.697755
21.685095
21.668906
21.648783
21.624270
21.594863
21.560023
21.519185
21.471764
21.417164
21.354784
21.284021
21.204273
21.114938
21.015414
20.905099
20.783380
20.649635
20.503222
20.343472
20.169687
19.981122
19.776983
19.556412
19.318478
19.062165
18.786357
18.489828
18.171216
17.829015
17.461555
17.066975
16.643193
16.187871
15.698360
15.171604
14.603945
13.990685
13.325117
12.596195
11.782949
10.841231
9.671935
8.041593
5.378843
0.311434
-9.698075
-24.657906
-38.053672
-48.121237
-55.400653
-60.601669
-64.300492
-66.925694
-68.787146
-70.106434
-71.041264
-71.703616
-72.172908
-72.505430
-72.741062
-72.908056
-73.026421
-73.110332
-73.169828
-73.212020
-73.241948
-73.263181
-73.278248
-73.288942
-73.296535
-73.301927
-73.305757
-73.308479
-73.310413
-73.311788
-73.312767
-73.313463
-73.313958
-73.314311
-73.314562
-73.314741
-73.314869
-73.314960
-73.315024
-73.315071
-73.315104
-73.315128
-73.315144
-73.315156
-73.315165
-73.315171
-73.315176
-73.315179
-73.315181
-73.315183
-73.315184
-73.315185
-73.315185
-73.315186
-73.315186
-73.315186
-73.315187
-73.315187
-73.315187
-73.315187
-73.315187
-73.315187
-73.315187
-73.315187
-73.315187
-73.315187
-73.315187
-73.315187
-73.315187
-73.315187
-73.315187
-73.315187
-73.315187
-73.315188
-73.315188
-73.315188
-73.315188
-73.315188
-73.315188
-73.315188
-73.315188
-73.315188
-73.315188
-73.315188
-73.315188
-73.315188
-73.315188
-73.315188
-73.315188
-73.315188
-73.315188
-73.315189
-73.315189
-73.315189
-73.315189
-73.315189
-73.315189
-73.315189
-73.315189
-73.315189
-73.315189
21.693285
21.691890
21.687665
21.680491
21.670174
21.656448
21.638984
21.617392
21.591234
21.560024
21.523243
21.480344
21.430763
21.373919
21.309228
21.236100
21.153943
21.062165
20.960169
20.847352
20.723103
20.586794
20.437780
20.275386
20.098900
19.907568
19.700582
19.477069
19.236082
18.976586
18.697445
18.397406
18.075088
17.728960
17.357320
16.958270
16.529693
16.069206
15.574106
15.041245
14.466812
13.845821
13.170939
12.429706
11.597992
10.624486
9.392766
7.625352
4.642906
-1.139696
-12.289849
-27.336948
-40.093702
-49.583252
-56.430960
-61.323328
-64.804729
-67.277665
-69.032741
-70.277793
-71.160839
-71.787071
-72.231168
-72.546113
-72.769480
-72.927913
-73.040301
-73.120037
-73.176617
-73.216771
-73.245273
-73.265509
-73.279879
-73.290085
-73.297336
-73.302489
-73.306151
-73.308756
-73.310608
-73.311925
-73.312863
-73.313530
-73.314006
-73.314344
-73.314586
-73.314758
-73.314880
-73.314968
-73.315030
-73.315075
-73.315107
-73.315130
-73.315146
-73.315157
-73.315166
-73.315172
-73.315176
-73.315179
-73.315181
-73.315183
-73.315184
-73.315185
-73.315185
-73.315186
-73.315186
-73.315186
-73.315187
-73.315187
-73.315187
-73.315187
-73.315187
-73.315187
-73.315187
-73.315187
-73.315187
-73.315187
-73.315187
-73.315187
-73.315187
-73.315187
-73.315187
-73.315187
-73.315187
-73.315187
-73.315188
-73.315188
-73.315188
-73.315188
-73.315188
-73.315188
-73.315188
-73.315188
-73.315188
-73.315188
-73.315188
-73.315188
-73.315188
-73.315188
-73.315188
-73.315188
-73.315188
-73.315188
-73.315188
-73.315189
-73.315189
-73.315189
-73.315189
-73.315189
-73.315189
-73.315189
-73.315189
21.662213
21.660687
21.656070
21.648247
21.637035
21.622178
21.603362
21.580213
21.552309
21.519186
21.480345
21.435258
21.383378
21.324144
21.256987
21.181329
21.096591
21.002187
20.897524
20.782003
20.655011
20.515918
20.364069
20.198782
20.019336
19.824962
19.614840
19.388079
19.143713
18.880686
18.597841
18.293901
17.967458
17.616948
17.240636
16.836590
16.402650
15.936383
15.435009
14.895276
14.313179
13.683353
12.997636
12.241752
11.387471
10.373705
9.059975
7.110251
3.709465
-2.969822
-15.338105
-30.179160
-42.217843
-51.099750
-57.499036
-62.071752
-65.328075
-67.643305
-69.288117
-70.456148
-71.285412
-71.874096
-72.291976
-72.588613
-72.799193
-72.948692
-73.054837
-73.130210
-73.183738
-73.221758
-73.248767
-73.267957
-73.281595
-73.291289
-73.298181
-73.303082
-73.306568
-73.309048
-73.310813
-73.312070
-73.312964
-73.313602
-73.314056
-73.314380
-73.314610
-73.314775
-73.314893
-73.314977
-73.315036
-73.315079
-73.315110
-73.315132
-73.315147
-73.315159
-73.315167
-73.315172
-73.315176
-73.315179
-73.315182
-73.315183
-73.315184
-73.315185
-73.315186
-73.315186
-73.315186
-73.315186
-73.315187
-73.315187
-73.315187
-73.315187
-73.315187
-73.315187
-73.315187
-73.315187
-73.315187
-73.315187
-73.315187
-73.315187
-73.315187
-73.315187
-73.315187
-73.315187
-73.315187
-73.315187
-73.315187
-73.315188
-73.315188
-73.315188
-73.315188
-73.315188
-73.315188
-73.315188
-73.315188
-73.315188
-73.315188
-73.315188
-73.315188
-73.315188
-73.315188
-73.315188
-73.315188
-73.315188
-73.315188
-73.315188
-73.315189
-73.315189
-73.315189
-73.315189
-73.315189
-73.315189
-73.315189
21.625013
21.623349
21.618321
21.609821
21.597672
21.581633
21.561402
21.536623
21.506892
21.471766
21.430763
21.383378
21.329081
21.267329
21.197568
21.119234
21.031757
20.934559
20.827052
20.708636
20.578699
20.436604
20.281693
20.113271
19.930608
19.732920
19.519370
19.289050
19.040975
18.774066
18.487141
18.178895
17.847890
17.492529
17.111044
16.701459
16.261566
15.788867
15.280500
14.733079
14.142354
13.502452
12.804143
12.030739
11.148346
10.082435
8.660942
6.473236
2.532248
-5.254681
-18.776020
-33.133001
-44.393386
-52.648218
-58.589266
-62.836124
-65.863044
-68.017443
-69.549701
-70.639029
-71.413280
-71.963513
-72.354518
-72.632367
-72.829812
-72.970125
-73.069844
-73.140721
-73.191102
-73.226919
-73.252385
-73.270495
-73.283376
-73.292539
-73.299058
-73.303698
-73.307001
-73.309352
-73.311027
-73.312220
-73.313070
-73.313676
-73.314108
-73.314417
-73.314637
-73.314794
-73.314906
-73.314986
-73.315043
-73.315084
-73.315113
-73.315134
-73.315149
-73.315160
-73.315167
-73.315173
-73.315177
-73.315180
-73.315182
-73.315183
-73.315184
-73.315185
-73.315186
-73.315186
-73.315186
-73.315186
-73.315187
-73.315187
-73.315187
-73.315187
-73.315187
-73.315187
-73.315187
-73.315187
-73.315187
-73.315187
-73.315187
-73.315187
-73.315187
-73.315187
-73.315187
-73.315187
-73.315187
-73.315187
-73.315187
-73.315187
-73.315188
-73.315188
-73.315188
-73.315188
-73.315188
-73.315188
-73.315188
-73.315188
-73.315188
-73.315188
-73.315188
-73.315188
-73.315188
-73.315188
-73.315188
-73.315188
-73.315188
-73.315188
-73.315188
-73.315189
-73.315189
-73.315189
-73.315189
-73.315189
-73.315189
21.580989
21.579183
21.573732
21.564531
21.551415
21.534154
21.512460
21.485994
21.454371
21.417166
21.373920
21.324145
21.267330
21.202948
21.130461
21.049318
20.958958
20.858811
20.748293
20.626804
20.493728
20.348425
20.190227
20.018432
19.832294
19.631019
19.413749
19.179558
18.927438
18.656285
18.364891
18.051922
17.715907
17.355214
16.968031
16.552338
16.105869
15.626058
15.109941
14.553958
13.953537
13.302145
12.589089
11.794331
10.876304
9.742982
8.181212
5.679988
1.025959
-8.113948
-22.496733
-36.144908
-46.587941
-54.206834
-59.686644
-63.606076
-66.402464
-68.395112
-69.814055
-70.824057
-71.542794
-72.054181
-72.418003
-72.676829
-72.860957
-72.991948
-73.085140
-73.151444
-73.198622
-73.232194
-73.256087
-73.273094
-73.285200
-73.293820
-73.299959
-73.304331
-73.307446
-73.309666
-73.311248
-73.312375
-73.313180
-73.313753
-73.314163
-73.314455
-73.314664
-73.314813
-73.314919
-73.314995
-73.315050
-73.315089
-73.315116
-73.315136
-73.315151
-73.315161
-73.315168
-73.315173
-73.315177
-73.315180
-73.315182
-73.315183
-73.315184
-73.315185
-73.315186
-73.315186
-73.315186
-73.315186
-73.315187
-73.315187
-73.315187
-73.315187
-73.315187
-73.315187
-73.315187
-73.315187
-73.315187
-73.315187
-73.315187
-73.315187
-73.315187
-73.315187
-73.315187
-73.315187
-73.315187
-73.315187
-73.315187
-73.315187
-73.315187
-73.315188
-73.315188
-73.315188
-73.315188
-73.315188
-73.315188
-73.315188
-73.315188
-73.315188
-73.315188
-73.315188
-73.315188
-73.315188
-73.315188
-73.315188
-73.315188
-73.315188
-73.315188
-73.315188
-73.315188
-73.315189
-73.315189
-73.315189
-73.315189
21.529453
21.527503
21.521618
21.511701
21.497596
21.479082
21.455889
21.427693
21.394128
21.354786
21.309229
21.256987
21.197568
21.130461
21.055140
20.971069
20.877696
20.774457
20.660769
20.536034
20.399632
20.250917
20.089215
19.913809
19.723942
19.518802
19.297515
19.059132
18.802621
18.526855
18.230594
17.912471
17.570980
17.204448
16.811021
16.388625
15.934933
15.447293
14.922611
14.357109
13.745784
13.081191
12.350619
11.529554
10.566320
9.345169
7.595030
4.664701
-0.941436
-11.652109
-26.386038
-39.164733
-48.771226
-55.755250
-60.777188
-64.371938
-66.939631
-68.771661
-70.077951
-71.008992
-71.672400
-72.145021
-72.481682
-72.721476
-72.892268
-73.013911
-73.100549
-73.162258
-73.206214
-73.237525
-73.259831
-73.275724
-73.287049
-73.295120
-73.300873
-73.304974
-73.307899
-73.309984
-73.311472
-73.312534
-73.313291
-73.313832
-73.314218
-73.314494
-73.314691
-73.314832
-73.314933
-73.315005
-73.315056
-73.315093
-73.315120
-73.315139
-73.315152
-73.315162
-73.315169
-73.315174
-73.315178
-73.315180
-73.315182
-73.315183
-73.315184
-73.315185
-73.315186
-73.315186
-73.315186
-73.315186
-73.315187
-73.315187
-73.315187
-73.315187
-73.315187
-73.315187
-73.315187
-73.315187
-73.315187
-73.315187
-73.315187
-73.315187
-73.315187
-73.315187
-73.315187
-73.315187
-73.315187
-73.315187
-73.315187
-73.315187
-73.315187
-73.315187
-73.315188
-73.315188
-73.315188
-73.315188
-73.315188
-73.315188
-73.315188
-73.315188
-73.315188
-73.315188
-73.315188
-73.315188
-73.315188
-73.315188
-73.315188
-73.315188
-73.315188
-73.315188
-73.315188
-73.315188
-73.315188
-73.315188
-73.315188
21.469728
21.467631
21.461306
21.450664
21.435553
21.415768
21.391050
21.361093
21.325547
21.284023
21.236101
21.181330
21.119234
21.049318
20.971069
20.883963
20.787456
20.680988
20.563980
20.435833
20.295921
20.143594
19.978166
19.798911
19.605057
19.395773
19.170165
18.927263
18.666009
18.385245
18.083700
17.759974
17.412521
17.039626
16.639383
16.209661
15.748056
15.251817
14.717688
14.141596
13.517952
12.838072
12.086533
11.232675
10.210507
8.870380
6.860559
3.344536
-3.492653
-15.833933
-30.342123
-42.148542
-50.916173
-57.275153
-61.848257
-65.124934
-67.468441
-69.142843
-70.338432
-71.191775
-71.800664
-72.235036
-72.544861
-72.765827
-72.923407
-73.035778
-73.115909
-73.173050
-73.213797
-73.242855
-73.263579
-73.278360
-73.288904
-73.296425
-73.301792
-73.305621
-73.308354
-73.310305
-73.311698
-73.312693
-73.313404
-73.313911
-73.314274
-73.314534
-73.314719
-73.314852
-73.314947
-73.315015
-73.315063
-73.315098
-73.315123
-73.315141
-73.315154
-73.315163
-73.315170
-73.315175
-73.315178
-73.315181
-73.315182
-73.315184
-73.315184
-73.315185
-73.315186
-73.315186
-73.315186
-73.315186
-73.315187
-73.315187
-73.315187
-73.315187
-73.315187
-73.315187
-73.315187
-73.315187
-73.315187
-73.315187
-73.315187
-73.315187
-73.315187
-73.315187
-73.315187
-73.315187
-73.315187
-73.315187
-73.315187
-73.315187
-73.315187
-73.315187
-73.315187
-73.315188
-73.315188
-73.315188
-73.315188
-73.315188
-73.315188
-73.315188
-73.315188
-73.315188
-73.315188
-73.315188
-73.315188
-73.315188
-73.315188
-73.315188
-73.315188
-73.315188
-73.315188
-73.315188
-73.315188
-73.315188
-73.315188
21.401153
21.398907
21.392139
21.380764
21.364639
21.343570
21.317310
21.285570
21.248015
21.204274
21.153944
21.096592
21.031757
20.958958
20.877696
20.787456
20.687702
20.577877
20.457405
20.325681
20.182079
20.025938
19.856563
19.673217
19.475110
19.261395
19.031155
18.783395
18.517029
18.230870
17.923611
17.593814
17.239890
16.860076
16.452413
16.014701
15.544453
15.038788
14.494240
13.906343
13.268708
12.570918
11.793668
10.897510
9.796460
8.294586
5.930456
1.622261
-6.760837
-20.466337
-34.276738
-45.057911
-52.999061
-58.750491
-62.888743
-65.857323
-67.983487
-69.504878
-70.592857
-71.370560
-71.926297
-72.323323
-72.606910
-72.809441
-72.954067
-73.057336
-73.131069
-73.183713
-73.221299
-73.248135
-73.267295
-73.280977
-73.290746
-73.297723
-73.302706
-73.306266
-73.308809
-73.310626
-73.311925
-73.312853
-73.313517
-73.313991
-73.314331
-73.314574
-73.314747
-73.314872
-73.314961
-73.315025
-73.315071
-73.315103
-73.315127
-73.315144
-73.315156
-73.315165
-73.315171
-73.315175
-73.315178
-73.315181
-73.315182
-73.315184
-73.315185
-73.315185
-73.315186
-73.315186
-73.315186
-73.315186
-73.315187
-73.315187
-73.315187
-73.315187
-73.315187
-73.315187
-73.315187
-73.315187
-73.315187
-73.315187
-73.315187
-73.315187
-73.315187
-73.315187
-73.315187
-73.315187
-73.315187
-73.315187
-73.315187
-73.315187
-73.315187
-73.315187
-73.315187
-73.315187
-73.315188
-73.315188
-73.315188
-73.315188
-73.315188
-73.315188
-73.315188
-73.315188
-73.315188
-73.315188
-73.315188
-73.315188
-73.315188
-73.315188
-73.315188
-73.315188
-73.315188
-73.315188
-73.315188
-73.315188
-73.315188
21.323079
21.320685
21.313473
21.301363
21.284219
21.261858
21.234047
21.200508
21.160923
21.114939
21.062166
21.002187
20.934559
20.858811
20.774456
20.680988
20.577877
20.464571
20.340489
20.205027
20.057550
19.897393
19.723848
19.536164
19.333536
19.115094
18.879898
18.626928
18.355067
18.063094
17.749666
17.413305
17.052375
16.665061
16.249339
15.802936
15.323256
14.807259
14.251199
13.650062
12.996314
12.277062
11.467573
10.516255
9.309183
7.584001
4.721536
-0.679165
-10.911214
-25.300312
-38.114423
-47.859466
-54.999542
-60.167589
-63.889177
-66.562481
-68.480121
-69.854502
-70.838933
-71.543737
-72.048167
-72.409089
-72.667271
-72.851926
-72.983974
-73.078391
-73.145895
-73.194154
-73.228654
-73.253316
-73.270947
-73.283550
-73.292561
-73.299003
-73.303609
-73.306903
-73.309258
-73.310943
-73.312149
-73.313011
-73.313628
-73.314070
-73.314387
-73.314613
-73.314775
-73.314892
-73.314975
-73.315035
-73.315078
-73.315108
-73.315130
-73.315146
-73.315158
-73.315166
-73.315172
-73.315176
-73.315179
-73.315181
-73.315183
-73.315184
-73.315185
-73.315185
-73.315186
-73.315186
-73.315186
-73.315186
-73.315186
-73.315187
-73.315187
-73.315187
-73.315187
-73.315187
-73.315187
-73.315187
-73.315187
-73.315187
-73.315187
-73.315187
-73.315187
-73.315187
-73.315187
-73.315187
-73.315187
-73.315187
-73.315187
-73.315187
-73.315187
-73.315187
-73.315187
-73.315187
-73.315187
-73.315188
-73.315188
-73.315188
-73.315188
-73.315188
-73.315188
-73.315188
-73.315188
-73.315188
-73.315188
-73.315188
-73.315188
-73.315188
-73.315188
-73.315188
-73.315188
-73.315188
-73.315188
-73.315188
-73.315188
21.234880
21.232337
21.224681
21.211835
21.193671
21.170014
21.140644
21.105296
21.063666
21.015415
20.960169
20.897524
20.827051
20.748292
20.660768
20.563980
20.457404
20.340488
20.212652
20.073285
19.921748
19.757366
19.579421
19.387146
19.179716
18.956241
18.715754
18.457206
18.179449
17.881225
17.561152
17.217707
16.849202
16.453766
16.029304
15.573452
15.083485
14.556148
13.987308
13.371183
12.698626
11.953230
11.102415
10.076748
8.721081
6.676622
3.106157
-3.755770
-15.910741
-30.131057
-41.797084
-50.526176
-56.901028
-61.515284
-64.841798
-67.234950
-68.954489
-70.188991
-71.074734
-71.709946
-72.165315
-72.491656
-72.725467
-72.892946
-73.012890
-73.098777
-73.160269
-73.204290
-73.235802
-73.258359
-73.274504
-73.286061
-73.294333
-73.300254
-73.304492
-73.307527
-73.309699
-73.311255
-73.312369