# vtk DataFile Version 3.0
Example structured points dataset
ASCII

DATASET STRUCTURED_POINTS
DIMENSIONS 151 151 2
ORIGIN 0 0 0
SPACING 0.005000 0.005000 0.005000

POINT_DATA 45602
SCALARS Transmembrane_Potential float 1
LOOKUP_TABLE default
18.305878
18.306518
18.308466
18.311792
18.316460
18.322393
18.329532
18.337821
18.347202
18.357611
18.368986
18.381264
18.394387
18.408294
18.422933
18.438251
18.454202
18.470741
18.487828
18.505425
18.523499
18.542016
18.560950
18.580274
18.599962
18.619994
18.640349
18.661008
18.681954
18.703172
18.724648
18.746368
18.768320
18.790494
18.812880
18.835467
18.858248
18.881216
18.904363
18.927681
18.951166
18.974812
18.998616
19.022571
19.046673
19.070919
19.095308
19.119835
19.144496
19.169290
19.194217
19.219274
19.244458
19.269768
19.295205
19.320768
19.346455
19.372266
19.398201
19.424261
19.450446
19.476756
19.503191
19.529752
19.556441
19.583259
19.610206
19.637283
19.664493
19.691839
19.719321
19.746940
19.774698
19.802599
19.830646
19.858841
19.887184
19.915679
19.944330
19.973140
20.002112
20.031248
20.060550
20.090023
20.119672
20.149499
20.179506
20.209696
20.240074
20.270646
20.301413
20.332379
20.363545
20.394916
20.426497
20.458291
20.490300
20.522525
20.554971
20.587640
20.620536
20.653659
20.687010
20.720590
20.754401
20.788445
20.822720
20.857224
20.891955
20.926912
20.962093
20.997494
21.033108
21.068929
21.104950
21.141163
21.177561
21.214130
21.250855
21.287721
21.324714
21.361815
21.399004
21.436253
21.473536
21.510824
21.548084
21.585282
21.622372
21.659308
21.696038
21.732506
21.768648
21.804391
21.839650
21.874330
21.908325
21.941515
21.973761
22.004896
22.034731
22.063046
22.089590
22.114080
22.136199
22.155610
22.171975
22.185004
22.194405
22.200055
22.201943
18.306519
18.307169
18.309130
18.312461
18.317123
18.323046
18.330174
18.338452
18.347819
18.358215
18.369576
18.381841
18.394949
18.408842
18.423467
18.438771
18.454709
18.471234
18.488308
18.505893
18.523955
18.542461
18.561384
18.580696
18.600374
18.620396
18.640742
18.661391
18.682329
18.703539
18.725007
18.746719
18.768663
18.790830
18.813209
18.835790
18.858564
18.881526
18.904667
18.927979
18.951458
18.975100
18.998898
19.022848
19.046945
19.071188
19.095572
19.120094
19.144751
19.169541
19.194464
19.219517
19.244698
19.270004
19.295438
19.320998
19.346682
19.372490
19.398422
19.424479
19.450662
19.476969
19.503401
19.529959
19.556646
19.583462
19.610407
19.637481
19.664689
19.692033
19.719513
19.747130
19.774886
19.802785
19.830830
19.859023
19.887365
19.915858
19.944507
19.973316
20.002287
20.031421
20.060721
20.090193
20.119840
20.149665
20.179671
20.209860
20.240238
20.270808
20.301574
20.332538
20.363703
20.395073
20.426653
20.458446
20.490454
20.522678
20.555123
20.587791
20.620686
20.653809
20.687159
20.720738
20.754548
20.788591
20.822866
20.857369
20.892099
20.927055
20.962235
20.997636
21.033250
21.069070
21.105090
21.141303
21.177700
21.214268
21.250993
21.287859
21.324851
21.361952
21.399140
21.436389
21.473672
21.510959
21.548219
21.585416
21.622506
21.659442
21.696172
21.732639
21.768781
21.804524
21.839782
21.874462
21.908457
21.941647
21.973892
22.005028
22.034862
22.063177
22.089721
22.114210
22.136328
22.155739
22.172103
22.185130
22.194530
22.200177
22.202062
18.308465
18.309129
18.311122
18.314461
18.319107
18.325003
18.332100
18.340342
18.349671
18.360027
18.371347
18.383570
18.396635
18.410486
18.425069
18.440332
18.456229
18.472716
18.489751
18.507299
18.525325
18.543796
18.562686
18.581967
18.601614
18.621606
18.641923
18.662545
18.683456
18.704641
18.726085
18.747773
18.769696
18.791841
18.814200
18.836760
18.859515
18.882459
18.905582
18.928877
18.952340
18.975966
18.999749
19.023684
19.047767
19.071996
19.096367
19.120876
19.145520
19.170299
19.195211
19.220252
19.245422
19.270718
19.296142
19.321692
19.347367
19.373165
19.399088
19.425137
19.451312
19.477611
19.504035
19.530585
19.557265
19.584074
19.611012
19.638080
19.665281
19.692618
19.720092
19.747703
19.775454
19.803347
19.831387
19.859575
19.887911
19.916399
19.945044
19.973848
20.002814
20.031943
20.061239
20.090706
20.120350
20.150171
20.180173
20.210358
20.240732
20.271298
20.302061
20.333022
20.364183
20.395550
20.427127
20.458917
20.490922
20.523143
20.555584
20.588250
20.621143
20.654263
20.687610
20.721186
20.754994
20.789035
20.823307
20.857808
20.892536
20.927490
20.962668
20.998067
21.033679
21.069497
21.105516
21.141727
21.178123
21.214689
21.251412
21.288276
21.325268
21.362367
21.399554
21.436802
21.474083
21.511369
21.548629
21.585825
21.622914
21.659849
21.696578
21.733045
21.769186
21.804928
21.840186
21.874865
21.908859
21.942050
21.974294
22.005429
22.035263
22.063577
22.090121
22.114610
22.136728
22.156137
22.172500
22.185525
22.194920
22.200566
22.202459
18.311790
18.312460
18.314461
18.317784
18.322394
18.328245
18.335289
18.343474
18.352741
18.363032
18.374284
18.386438
18.399433
18.413215
18.427728
18.442924
18.458754
18.475176
18.492148
18.509635
18.527601
18.546016
18.564851
18.584078
18.603674
18.623618
18.643888
18.664464
18.685332
18.706475
18.727878
18.749528
18.771413
18.793523
18.815847
18.838374
18.861098
18.884011
18.907104
18.930371
18.953807
18.977406
19.001164
19.025074
19.049134
19.073340
19.097689
19.122177
19.146801
19.171560
19.196453
19.221476
19.246627
19.271906
19.297313
19.322847
19.348506
19.374289
19.400198
19.426233
19.452393
19.478679
19.505090
19.531628
19.558296
19.585093
19.612019
19.639076
19.666266
19.693593
19.721056
19.748657
19.776398
19.804283
19.832314
19.860492
19.888820
19.917300
19.945936
19.974732
20.003690
20.032812
20.062101
20.091561
20.121198
20.151012
20.181007
20.211186
20.241554
20.272114
20.302871
20.333826
20.364981
20.396343
20.427915
20.459700
20.491699
20.523915
20.556352
20.589014
20.621902
20.655017
20.688360
20.721932
20.755737
20.789774
20.824042
20.858539
20.893263
20.928214
20.963389
20.998784
21.034393
21.070208
21.106223
21.142432
21.178825
21.215389
21.252109
21.288971
21.325960
21.363058
21.400243
21.437488
21.474768
21.512052
21.549310
21.586505
21.623592
21.660526
21.697253
21.733719
21.769860
21.805601
21.840857
21.875535
21.909529
21.942718
21.974962
22.006096
22.035929
22.064243
22.090786
22.115275
22.137393
22.156802
22.173164
22.186185
22.195577
22.201228
22.203128
18.316456
18.317122
18.319106
18.322393
18.326951
18.332741
18.339715
18.347822
18.357005
18.367206
18.378366
18.390425
18.403326
18.417011
18.431430
18.446532
18.462271
18.478603
18.495489
18.512891
18.530775
18.549111
18.567870
18.587024
18.606549
18.626425
18.646629
18.667143
18.687950
18.709035
18.730382
18.751978
18.773812
18.795872
18.818148
18.840629
18.863309
18.886179
18.909231
18.932459
18.955857
18.979419
19.003141
19.027017
19.051044
19.075219
19.099537
19.123995
19.148591
19.173323
19.198188
19.223185
19.248311
19.273567
19.298951
19.324462
19.350099
19.375861
19.401749
19.427764
19.453905
19.480171
19.506564
19.533086
19.559736
19.586516
19.613426
19.640468
19.667644
19.694956
19.722404
19.749991
19.777719
19.805591
19.833609
19.861775
19.890090
19.918558
19.947184
19.975969
20.004916
20.034026
20.063305
20.092756
20.122383
20.152188
20.182173
20.212343
20.242702
20.273255
20.304003
20.334949
20.366097
20.397452
20.429016
20.460794
20.492786
20.524995
20.557426
20.590081
20.622962
20.656071
20.689408
20.722975
20.756774
20.790805
20.825068
20.859559
20.894279
20.929225
20.964396
20.999786
21.035390
21.071201
21.107213
21.143418
21.179807
21.216367
21.253083
21.289942
21.326928
21.364023
21.401205
21.438447
21.475724
21.513006
21.550262
21.587454
21.624540
21.661471
21.698196
21.734661
21.770800
21.806539
21.841794
21.876471
21.910464
21.943652
21.975896
22.007028
22.036860
22.065173
22.091716
22.116205
22.138323
22.157733
22.174095
22.187115
22.196506
22.202168
22.204075
18.322388
18.323045
18.325002
18.328243
18.332740
18.338455
18.345342
18.353352
18.362431
18.372522
18.383567
18.395508
18.408289
18.421855
18.436155
18.451140
18.466763
18.482982
18.499758
18.517054
18.534836
18.553072
18.571733
18.590794
18.610231
18.630020
18.650140
18.670575
18.691305
18.712316
18.733591
18.755120
18.776888
18.798884
18.821099
18.843522
18.866145
18.888960
18.911960
18.935137
18.958487
18.982002
19.005679
19.029511
19.053496
19.077630
19.101909
19.126329
19.150888
19.175585
19.200416
19.225380
19.250474
19.275699
19.301053
19.326535
19.352143
19.377879
19.403741
19.429731
19.455846
19.482089
19.508459
19.534958
19.561587
19.588345
19.615234
19.642256
19.669413
19.696706
19.724136
19.751705
19.779415
19.807270
19.835272
19.863422
19.891721
19.920175
19.948786
19.977557
20.006490
20.035587
20.064853
20.094291
20.123906
20.153698
20.183672
20.213830
20.244179
20.274720
20.305458
20.336393
20.367531
20.398876
20.430431
20.462199
20.494182
20.526382
20.558805
20.591452
20.624325
20.657426
20.690755
20.724314
20.758106
20.792131
20.826386
20.860871
20.895584
20.930524
20.965689
21.001074
21.036672
21.072477
21.108483
21.144684
21.181068
21.217623
21.254335
21.291189
21.328172
21.365263
21.402440
21.439679
21.476952
21.514231
21.551485
21.588674
21.625756
21.662685
21.699408
21.735871
21.772009
21.807746
21.842998
21.877673
21.911665
21.944853
21.977095
22.008226
22.038056
22.066368
22.092911
22.117401
22.139519
22.158930
22.175294
22.188314
22.197710
22.203390
22.205306
18.329526
18.330172
18.332098
18.335287
18.339713
18.345341
18.352128
18.360026
18.368983
18.378944
18.389854
18.401656
18.414295
18.427720
18.441879
18.456724
18.472211
18.488296
18.504941
18.522109
18.539767
18.557884
18.576430
18.595379
18.614708
18.634393
18.654414
18.674752
18.695389
18.716310
18.737500
18.758946
18.780634
18.802554
18.824694
18.847047
18.869602
18.892351
18.915287
18.938403
18.961694
18.985152
19.008774
19.032553
19.056488
19.080572
19.104803
19.129177
19.153692
19.178346
19.203135
19.228059
19.253114
19.278302
19.303619
19.329066
19.354640
19.380342
19.406173
19.432131
19.458217
19.484430
19.510772
19.537244
19.563845
19.590577
19.617441
19.644439
19.671573
19.698843
19.726250
19.753797
19.781487
19.809322
19.837304
19.865433
19.893714
19.922150
19.950743
19.979497
20.008412
20.037493
20.066743
20.096166
20.125765
20.155543
20.185502
20.215647
20.245982
20.276510
20.307234
20.338157
20.369283
20.400616
20.432160
20.463916
20.495888
20.528077
20.560489
20.593127
20.625990
20.659081
20.692400
20.725951
20.759734
20.793750
20.827997
20.862473
20.897178
20.932111
20.967269
21.002646
21.038237
21.074036
21.110036
21.146231
21.182609
21.219158
21.255864
21.292713
21.329691
21.366778
21.403950
21.441184
21.478453
21.515729
21.552979
21.590165
21.627243
21.664168
21.700889
21.737350
21.773485
21.809219
21.844470
21.879142
21.913133
21.946319
21.978560
22.009689
22.039518
22.067829
22.094373
22.118863
22.140982
22.160395
22.176763
22.189786
22.199191
22.204898
22.206826
18.337815
18.338449
18.340339
18.343471
18.347819
18.353351
18.360025
18.367797
18.376617
18.386431
18.397188
18.408833
18.421312
18.434576
18.448575
18.463260
18.478590
18.494521
18.511016
18.528038
18.545553
18.563532
18.581944
18.600764
18.619968
18.639532
18.659437
18.679663
18.700193
18.721010
18.742100
18.763449
18.785044
18.806875
18.828929
18.851199
18.873673
18.896345
18.919207
18.942252
18.965473
18.988865
19.012422
19.036140
19.060015
19.084041
19.108216
19.132536
19.156999
19.181602
19.206343
19.231219
19.256229
19.281373
19.306647
19.332052
19.357586
19.383250
19.409043
19.434964
19.461014
19.487193
19.513502
19.539942
19.566512
19.593213
19.620048
19.647018
19.674123
19.701366
19.728747
19.756268
19.783934
19.811745
19.839702
19.867809
19.896068
19.924483
19.953055
19.981788
20.010683
20.039744
20.068976
20.098381
20.127962
20.157722
20.187664
20.217792
20.248112
20.278624
20.309333
20.340240
20.371352
20.402672
20.434202
20.465944
20.497902
20.530080
20.562480
20.595105
20.627957
20.661035
20.694344
20.727884
20.761658
20.795663
20.829900
20.864366
20.899063
20.933987
20.969136
21.004504
21.040087
21.075878
21.111871
21.148059
21.184429
21.220971
21.257670
21.294514
21.331486
21.368567
21.405734
21.442962
21.480227
21.517498
21.554744
21.591926
21.629000
21.665921
21.702640
21.739097
21.775229
21.810961
21.846208
21.880879
21.914868
21.948053
21.980291
22.011419
22.041246
22.069557
22.096101
22.120591
22.142712
22.162128
22.178501
22.191528
22.200949
22.206689
22.208629
18.347195
18.347816
18.349668
18.352738
18.357002
18.362429
18.368982
18.376616
18.385285
18.394940
18.405529
18.417000
18.429304
18.442390
18.456210
18.470719
18.485874
18.501634
18.517960
18.534818
18.552174
18.569997
18.588259
18.606934
18.625997
18.645426
18.665199
18.685298
18.705706
18.726405
18.747381
18.768621
18.790111
18.811839
18.833796
18.855971
18.878354
18.900939
18.923716
18.946679
18.969821
18.993137
19.016621
19.040268
19.064073
19.088033
19.112144
19.136403
19.160807
19.185352
19.210036
19.234858
19.259817
19.284909
19.310134
19.335492
19.360980
19.386600
19.412349
19.438228
19.464238
19.490378
19.516649
19.543051
19.569585
19.596251
19.623053
19.649989
19.677063
19.704274
19.731624
19.759117
19.786755
19.814537
19.842468
19.870548
19.898782
19.927172
19.955720
19.984429
20.013301
20.042340
20.071551
20.100935
20.130495
20.160234
20.190157
20.220267
20.250568
20.281062
20.311753
20.342643
20.373739
20.405042
20.436556
20.468283
20.500226
20.532389
20.564776
20.597387
20.630225
20.663290
20.696586
20.730115
20.763876
20.797870
20.832094
20.866550
20.901236
20.936151
20.971289
21.006648
21.042220
21.078002
21.113988
21.150167
21.186529
21.223063
21.259755
21.296592
21.333558
21.370632
21.407792
21.445014
21.482273
21.519540
21.556781
21.593957
21.631027
21.667944
21.704659
21.741114
21.777242
21.812970
21.848214
21.882883
21.916870
21.950053
21.982289
22.013414
22.043241
22.071551
22.098095
22.122586
22.144708
22.164126
22.180506
22.193539
22.202984
22.208757
22.210707
18.357603
18.358211
18.360024
18.363028
18.367203
18.372520
18.378942
18.386430
18.394939
18.404423
18.414832
18.426117
18.438231
18.451124
18.464752
18.479069
18.494034
18.509606
18.525749
18.542427
18.559608
18.577260
18.595357
18.613871
18.632779
18.652057
18.671685
18.691644
18.711916
18.732484
18.753334
18.774451
18.795824
18.817439
18.839286
18.861355
18.883637
18.906124
18.928806
18.951677
18.974731
18.997962
19.021364
19.044931
19.068660
19.092546
19.116585
19.140774
19.165110
19.189590
19.214212
19.238974
19.263874
19.288909
19.314079
19.339383
19.364820
19.390389
19.416090
19.441922
19.467886
19.493981
19.520209
19.546569
19.573063
19.599690
19.626453
19.653353
19.680390
19.707566
19.734883
19.762343
19.789948
19.817699
19.845599
19.873650
19.901855
19.930217
19.958738
19.987419
20.016266
20.045281
20.074467
20.103827
20.133363
20.163080
20.192981
20.223070
20.253350
20.283823
20.314494
20.345366
20.376443
20.407728
20.439223
20.470933
20.502859
20.535006
20.567377
20.599972
20.632794
20.665845
20.699127
20.732642
20.766389
20.800369
20.834581
20.869024
20.903699
20.938602
20.973729
21.009076
21.044638
21.080410
21.116386
21.152556
21.188908
21.225433
21.262117
21.298946
21.335904
21.372970
21.410123
21.447339
21.484592
21.521854
21.559088
21.596259
21.633323
21.670236
21.706947
21.743398
21.779523
21.815246
21.850488
21.885154
21.919139
21.952319
21.984553
22.015676
22.045501
22.073811
22.100355
22.124846
22.146969
22.166390
22.182776
22.195816
22.205291
22.211091
22.213046
18.368978
18.369572
18.371343
18.374280
18.378362
18.383564
18.389851
18.397186
18.405528
18.414831
18.425051
18.436140
18.448052
18.460742
18.474164
18.488276
18.503038
18.518409
18.534355
18.550840
18.567831
18.585300
18.603217
18.621557
18.640295
18.659410
18.678880
18.698685
18.718809
18.739234
18.759946
18.780930
18.802173
18.823664
18.845391
18.867345
18.889515
18.911892
18.934470
18.957241
18.980198
19.003335
19.026645
19.050125
19.073769
19.097573
19.121533
19.145645
19.169907
19.194315
19.218868
19.243563
19.268397
19.293369
19.318478
19.343723
19.369102
19.394615
19.420262
19.446042
19.471955
19.498002
19.524182
19.550495
19.576944
19.603528
19.630249
19.657107
19.684103
19.711240
19.738520
19.765943
19.793512
19.821228
19.849094
19.877113
19.905286
19.933617
19.962106
19.990759
20.019577
20.048564
20.077723
20.107056
20.136566
20.166258
20.196135
20.226200
20.256456
20.286907
20.317555
20.348406
20.379463
20.410727
20.442202
20.473892
20.505800
20.537929
20.570282
20.602859
20.635664
20.668698
20.701965
20.735464
20.769197
20.803161
20.837359
20.871789
20.906450
20.941340
20.976454
21.011789
21.047339
21.083101
21.119066
21.155224
21.191566
21.228081
21.264756
21.301577
21.338526
21.375584
21.412728
21.449937
21.487184
21.524439
21.561667
21.598831
21.635890
21.672798
21.709505
21.745951
21.782071
21.817790
21.853029
21.887692
21.921675
21.954852
21.987083
22.018204
22.048028
22.076338
22.102881
22.127371
22.149494
22.168916
22.185308
22.198356
22.207862
22.213675
22.215631
18.381256
18.381836
18.383565
18.386433
18.390421
18.395504
18.401652
18.408830
18.416999
18.426116
18.436140
18.447025
18.458727
18.471203
18.484410
18.498307
18.512854
18.528014
18.543750
18.560029
18.576820
18.594092
18.611818
18.629971
18.648529
18.667467
18.686767
18.706407
18.726372
18.746643
18.767205
18.788045
18.809148
18.830505
18.852102
18.873929
18.895977
18.918238
18.940702
18.963363
18.986214
19.009248
19.032460
19.055844
19.079395
19.103110
19.126983
19.151012
19.175192
19.199523
19.223999
19.248620
19.273382
19.298285
19.323328
19.348508
19.373824
19.399276
19.424864
19.450587
19.476445
19.502437
19.528564
19.554827
19.581226
19.607762
19.634436
19.661249
19.688201
19.715296
19.742534
19.769917
19.797446
19.825124
19.852953
19.880936
19.909074
19.937370
19.965826
19.994446
20.023233
20.052189
20.081318
20.110621
20.140103
20.169768
20.199618
20.229657
20.259887
20.290312
20.320937
20.351765
20.382798
20.414039
20.445493
20.477161
20.509049
20.541158
20.573490
20.606048
20.638834
20.671851
20.705101
20.738583
20.772298
20.806246
20.840428
20.874844
20.909490
20.944365
20.979465
21.014786
21.050324
21.086074
21.122026
21.158172
21.194503
21.231007
21.267672
21.304484
21.341423
21.378471
21.415607
21.452808
21.490048
21.527295
21.564516
21.601673
21.638726
21.675629
21.712331
21.748772
21.784886
21.820602
21.855837
21.890498
21.924477
21.957651
21.989879
22.020998
22.050821
22.079129
22.105671
22.130159
22.152281
22.171704
22.188099
22.201155
22.210684
22.216497
22.218447
18.394378
18.394943
18.396630
18.399428
18.403321
18.408285
18.414292
18.421310
18.429302
18.438229
18.448051
18.458726
18.470213
18.482468
18.495452
18.509126
18.523449
18.538388
18.553905
18.569969
18.586548
18.603613
18.621136
18.639093
18.657459
18.676211
18.695329
18.714795
18.734588
18.754694
18.775097
18.795783
18.816737
18.837949
18.859406
18.881098
18.903016
18.925150
18.947493
18.970036
18.992772
19.015696
19.038801
19.062082
19.085533
19.109151
19.132930
19.156869
19.180962
19.205207
19.229601
19.254141
19.278827
19.303656
19.328625
19.353735
19.378983
19.404369
19.429893
19.455553
19.481350
19.507284
19.533354
19.559562
19.585908
19.612391
19.639014
19.665778
19.692683
19.719731
19.746924
19.774262
19.801748
19.829385
19.857174
19.885117
19.913217
19.941475
19.969895
19.998480
20.027233
20.056155
20.085251
20.114522
20.143974
20.173609
20.203429
20.233439
20.263641
20.294040
20.324638
20.355440
20.386447
20.417664
20.449094
20.480740
20.512605
20.544692
20.577002
20.609539
20.642305
20.675303
20.708533
20.741996
20.775692
20.809623
20.843788
20.878187
20.912818
20.947676
20.982761
21.018068
21.053592
21.089328
21.125267
21.161400
21.197718
21.234211
21.270866
21.307666
21.344594
21.381632
21.418759
21.455952
21.493183
21.530422
21.567635
21.604785
21.641832
21.678730
21.715425
21.751860
21.787970
21.823681
21.858913
21.893570
21.927545
21.960716
21.992940
22.024058
22.053879
22.082185
22.108725
22.133211
22.155331
22.174752
22.191147
22.204210
22.213749
22.219546
22.221487
18.408285
18.408836
18.410481
18.413209
18.417006
18.421850
18.427716
18.434573
18.442387
18.451122
18.460740
18.471202
18.482468
18.494498
18.507253
18.520696
18.534790
18.549499
18.564790
18.580630
18.596989
18.613838
18.631150
18.648900
18.667065
18.685621
18.704549
18.723829
18.743444
18.763376
18.783610
18.804131
18.824927
18.845986
18.867294
18.888843
18.910622
18.932621
18.954833
18.977250
18.999865
19.022671
19.045662
19.068832
19.092176
19.115690
19.139370
19.163211
19.187209
19.211363
19.235669
19.260124
19.284727
19.309475
19.334366
19.359400
19.384575
19.409891
19.435345
19.460938
19.486670
19.512541
19.538550
19.564698
19.590986
19.617413
19.643981
19.670692
19.697545
19.724543
19.751687
19.778978
19.806418
19.834010
19.861755
19.889655
19.917713
19.945932
19.974313
20.002860
20.031575
20.060461
20.089521
20.118759
20.148177
20.177779
20.207567
20.237546
20.267718
20.298088
20.328658
20.359431
20.390411
20.421601
20.453005
20.484627
20.516467
20.548529
20.580817
20.613331
20.646076
20.679052
20.712261
20.745703
20.779380
20.813292
20.847439
20.881820
20.916432
20.951274
20.986342
21.021634
21.057143
21.092863
21.128787
21.164907
21.201213
21.237693
21.274335
21.311123
21.348040
21.385068
21.422185
21.459368
21.496590
21.533820
21.571024
21.608167
21.645208
21.682099
21.718788
21.755217
21.791321
21.827028
21.862255
21.896908
21.930880
21.964046
21.996268
22.027383
22.057202
22.085506
22.112042
22.136525
22.158642
22.178060
22.194453
22.207519
22.217051
22.222820
22.224747
18.422923
18.423461
18.425063
18.427722
18.431424
18.436150
18.441875
18.448571
18.456207
18.464749
18.474162
18.484409
18.495451
18.507253
18.519776
18.532984
18.546843
18.561317
18.576375
18.591985
18.608116
18.624742
18.641835
18.659371
18.677326
18.695679
18.714408
18.733494
18.752921
18.772670
18.792727
18.813077
18.833706
18.854603
18.875755
18.897152
18.918783
18.940641
18.962715
18.984999
19.007484
19.030165
19.053034
19.076087
19.099318
19.122722
19.146294
19.170032
19.193930
19.217987
19.242199
19.266563
19.291077
19.315739
19.340548
19.365501
19.390598
19.415836
19.441217
19.466739
19.492401
19.518204
19.544148
19.570232
19.596457
19.622825
19.649335
19.675988
19.702786
19.729730
19.756821
19.784062
19.811453
19.838997
19.866695
19.894549
19.922563
19.950738
19.979077
20.007583
20.036258
20.065105
20.094128
20.123329
20.152711
20.182277
20.212031
20.241977
20.272117
20.302455
20.332994
20.363737
20.394688
20.425850
20.457227
20.488821
20.520634
20.552671
20.584933
20.617424
20.650145
20.683098
20.716284
20.749704
20.783360
20.817252
20.851379
20.885740
20.920334
20.955157
20.990208
21.025483
21.060975
21.096680
21.132588
21.168693
21.204985
21.241452
21.278080
21.314855
21.351760
21.388777
21.425884
21.463056
21.500268
21.537488
21.574684
21.611819
21.648852
21.685736
21.722418
21.758840
21.794939
21.830642
21.865864
21.900513
21.934479
21.967642
21.999862
22.030974
22.060790
22.089090
22.115622
22.140102
22.162216
22.181630
22.198015
22.211081
22.220589
22.226324
22.228238
18.438242
18.438765
18.440326
18.442917
18.446526
18.451134
18.456720
18.463256
18.470716
18.479066
18.488274
18.498305
18.509124
18.520696
18.532984
18.545955
18.559575
18.573811
18.588631
18.604005
18.619904
18.636300
18.653168
18.670483
18.688222
18.706363
18.724886
18.743772
18.763003
18.782562
18.802434
18.822604
18.843059
18.863787
18.884775
18.906013
18.927491
18.949199
18.971128
18.993271
19.015621
19.038169
19.060911
19.083840
19.106951
19.130238
19.153698
19.177327
19.201120
19.225073
19.249185
19.273453
19.297873
19.322444
19.347165
19.372032
19.397045
19.422203
19.447506
19.472951
19.498540
19.524271
19.550145
19.576161
19.602321
19.628624
19.655072
19.681665
19.708404
19.735291
19.762326
19.789513
19.816851
19.844343
19.871991
19.899797
19.927764
19.955893
19.984187
20.012649
20.041281
20.070087
20.099069
20.128231
20.157574
20.187103
20.216821
20.246731
20.276837
20.307141
20.337647
20.368358
20.399278
20.430410
20.461757
20.493321
20.525107
20.557116
20.589352
20.621817
20.654512
20.687440
20.720602
20.753999
20.787633
20.821503
20.855609
20.889948
20.924522
20.959326
20.994359
21.029615
21.065089
21.100776
21.136668
21.172758
21.209035
21.245487
21.282101
21.318862
21.355755
21.392759
21.429855
21.467016
21.504217
21.541427
21.578614
21.615741
21.652765
21.689641
21.726316
21.762732
21.798825
21.834522
21.869740
21.904383
21.938345
21.971505
22.003721
22.034830
22.064642
22.092938
22.119466
22.143943
22.166052
22.185461
22.201837
22.214896
22.224371
22.230075
22.231981
18.454192
18.454702
18.456223
18.458747
18.462264
18.466757
18.472206
18.478585
18.485870
18.494030
18.503035
18.512852
18.523448
18.534789
18.546842
18.559575
18.572954
18.586949
18.601528
18.616663
18.632325
18.648487
18.665124
18.682213
18.699730
18.717654
18.735964
18.754643
18.773672
18.793035
18.812715
18.832700
18.852974
18.873526
18.894343
18.915415
18.936732
18.958284
18.980063
19.002059
19.024266
19.046677
19.069285
19.092084
19.115068
19.138234
19.161576
19.185089
19.208770
19.232616
19.256623
19.280789
19.305110
19.329586
19.354212
19.378989
19.403915
19.428988
19.454208
19.479573
19.505083
19.530738
19.556538
19.582483
19.608573
19.634809
19.661190
19.687719
19.714396
19.741222
19.768199
19.795328
19.822610
19.850047
19.877642
19.905397
19.933313
19.961393
19.989640
20.018055
20.046643
20.075405
20.104344
20.133463
20.162766
20.192255
20.221935
20.251807
20.281876
20.312144
20.342615
20.373292
20.404179
20.435278
20.466594
20.498127
20.529883
20.561863
20.594071
20.626508
20.659176
20.692078
20.725215
20.758588
20.792197
20.826044
20.860126
20.894444
20.928996
20.963780
20.998792
21.034029
21.069484
21.105153
21.141028
21.177101
21.213362
21.249798
21.286397
21.323144
21.360023
21.397015
21.434097
21.471247
21.508436
21.545636
21.582814
21.619931
21.656947
21.693814
21.730481
21.766891
21.802978
21.838669
21.873881
21.908518
21.942476
21.975632
22.007845
22.038950
22.068757
22.097049
22.123574
22.148046
22.170151
22.189555
22.205922
22.218969
22.228412
22.234105
22.236015
18.470731
18.471227
18.472709
18.475169
18.478596
18.482976
18.488290
18.494517
18.501630
18.509603
18.518407
18.528011
18.538386
18.549498
18.561316
18.573810
18.586949
18.600701
18.615037
18.629930
18.645352
18.661277
18.677680
18.694538
18.711829
18.729531
18.747624
18.766090
18.784912
18.804072
18.823556
18.843348
18.863435
18.883806
18.904446
18.925347
18.946497
18.967887
18.989508
19.011352
19.033411
19.055678
19.078146
19.100810
19.123663
19.146701
19.169918
19.193312
19.216876
19.240609
19.264506
19.288565
19.312783
19.337158
19.361687
19.386369
19.411203
19.436186
19.461319
19.486599
19.512027
19.537603
19.563325
19.589195
19.615211
19.641375
19.667687
19.694149
19.720760
19.747522
19.774436
19.801504
19.828728
19.856108
19.883647
19.911348
19.939210
19.967239
19.995435
20.023802
20.052341
20.081057
20.109950
20.139025
20.168285
20.197733
20.227371
20.257204
20.287233
20.317463
20.347897
20.378539
20.409391
20.440456
20.471737
20.503239
20.534963
20.566913
20.599090
20.631498
20.664137
20.697011
20.730121
20.763468
20.797052
20.830873
20.864931
20.899226
20.933756
20.968518
21.003509
21.038724
21.074160
21.109810
21.145667
21.181722
21.217965
21.254384
21.290967
21.327700
21.364565
21.401543
21.438612
21.475748
21.512926
21.550115
21.587283
21.624390
21.661396
21.698255
21.734914
21.771317
21.807397
21.843082
21.878287
21.912920
21.946874
21.980025
22.012233
22.043334
22.073137
22.101425
22.127946
22.152414
22.174514
22.193912
22.210274
22.223306
22.232734
22.238449
22.240375
18.487817
18.488301
18.489744
18.492141
18.495482
18.499752
18.504935
18.511011
18.517956
18.525745
18.534352
18.543747
18.553903
18.564788
18.576374
18.588630
18.601528
18.615037
18.629131
18.643780
18.658961
18.674646
18.690812
18.707436
18.724497
18.741973
18.759845
18.778095
18.796704
18.815658
18.834939
18.854534
18.874430
18.894613
18.915072
18.935795
18.956773
18.977996
18.999455
19.021140
19.043046
19.065163
19.087487
19.110010
19.132726
19.155632
19.178721
19.201989
19.225432
19.249046
19.272829
19.296776
19.320886
19.345156
19.369583
19.394166
19.418903
19.443793
19.468835
19.494027
19.519369
19.544861
19.570502
19.596292
19.622231
19.648321
19.674560
19.700951
19.727493
19.754188
19.781037
19.808041
19.835203
19.862523
19.890003
19.917646
19.945453
19.973427
20.001571
20.029886
20.058375
20.087041
20.115887
20.144916
20.174131
20.203534
20.233129
20.262919
20.292908
20.323098
20.353494
20.384097
20.414911
20.445940
20.477187
20.508654
20.540345
20.572262
20.604408
20.636784
20.669394
20.702239
20.735321
20.768640
20.802196
20.835991
20.870025
20.904295
20.938801
20.973540
21.008508
21.043702
21.079117
21.114746
21.150584
21.186619
21.222844
21.259246
21.295813
21.332530
21.369379
21.406342
21.443397
21.480521
21.517687
21.554864
21.592020
21.629117
21.666113
21.702963
21.739615
21.776010
21.812083
21.847760
21.882960
21.917587
21.951536
21.984683
22.016886
22.047982
22.077781
22.106065
22.132582
22.157045
22.179139
22.198532
22.214892
22.227913
22.237353
22.243108
22.245049
18.505414
18.505885
18.507292
18.509627
18.512883
18.517047
18.522103
18.528032
18.534813
18.542423
18.550836
18.560026
18.569966
18.580628
18.591983
18.604004
18.616662
18.629930
18.643780
18.658187
18.673124
18.688569
18.704497
18.720885
18.737714
18.754961
18.772609
18.790638
18.809032
18.827774
18.846850
18.866243
18.885943
18.905934
18.926207
18.946749
18.967550
18.988600
19.009891
19.031414
19.053161
19.075124
19.097298
19.119676
19.142251
19.165019
19.187974
19.211113
19.234430
19.257922
19.281586
19.305418
19.329415
19.353575
19.377896
19.402376
19.427013
19.451805
19.476752
19.501852
19.527104
19.552508
19.578064
19.603772
19.629631
19.655642
19.681806
19.708122
19.734592
19.761217
19.787998
19.814936
19.842032
19.869289
19.896708
19.924291
19.952040
19.979957
20.008045
20.036306
20.064742
20.093357
20.122153
20.151133
20.180300
20.209657
20.239207
20.268953
20.298899
20.329048
20.359402
20.389965
20.420741
20.451732
20.482942
20.514373
20.546029
20.577911
20.610024
20.642368
20.674947
20.707761
20.740812
20.774102
20.807630
20.841398