# vtk DataFile Version 3.0
Example structured points dataset
ASCII

DATASET STRUCTURED_POINTS
DIMENSIONS 151 151 2
ORIGIN 0 0 0
SPACING 0.005000 0.005000 0.005000

POINT_DATA 45602
SCALARS Transmembrane_Potential float 1
LOOKUP_TABLE default
23.013980
23.015286
23.019236
23.025912
23.035271
23.047215
23.061662
23.078522
23.097695
23.119076
23.142550
23.168001
23.195310
23.224360
23.255037
23.287229
23.320831
23.355738
23.391855
23.429090
23.467353
23.506565
23.546646
23.587525
23.629131
23.671403
23.714278
23.757700
23.801615
23.845976
23.890734
23.935845
23.981269
24.026969
24.072908
24.119051
24.165369
24.211833
24.258415
24.305086
24.351825
24.398612
24.445423
24.492236
24.539034
24.585802
24.632522
24.679177
24.725751
24.772233
24.818612
24.864872
24.910999
24.956982
25.002815
25.048487
25.093982
25.139291
25.184407
25.229323
25.274028
25.318510
25.362759
25.406771
25.450540
25.494053
25.537299
25.580271
25.622965
25.665374
25.707487
25.749291
25.790780
25.831953
25.872803
25.913317
25.953485
25.993303
26.032769
26.071879
26.110623
26.148992
26.186983
26.224599
26.261841
26.298702
26.335178
26.371271
26.406991
26.442347
26.477341
26.511976
26.546265
26.580229
26.613888
26.647263
26.680369
26.713234
26.745894
26.778391
26.810767
26.843060
26.875314
26.907590
26.939954
26.972476
27.005220
27.038257
27.071669
27.105550
27.139999
27.175110
27.210978
27.247704
27.285406
27.324207
27.364223
27.405566
27.448349
27.492698
27.538742
27.586606
27.636401
27.688234
27.742208
27.798433
27.857009
27.918016
27.981510
28.047531
28.116111
28.187257
28.260943
28.337088
28.415559
28.496168
28.578665
28.662706
28.747824
28.833396
28.918632
29.002549
29.083947
29.161387
29.233204
29.297584
29.352695
29.397037
29.428980
29.448205
29.454665
23.015286
23.016602
23.020568
23.027250
23.036601
23.048534
23.062965
23.079807
23.098961
23.120320
23.143772
23.169198
23.196482
23.225507
23.256158
23.288324
23.321899
23.356781
23.392872
23.430081
23.468320
23.507507
23.547564
23.588420
23.630003
23.672253
23.715106
23.758507
23.802402
23.846743
23.891481
23.936573
23.981979
24.027662
24.073584
24.119710
24.166012
24.212461
24.259027
24.305684
24.352409
24.399182
24.445980
24.492780
24.539565
24.586321
24.633029
24.679673
24.726235
24.772707
24.819076
24.865325
24.911442
24.957416
25.003239
25.048902
25.094388
25.139688
25.184795
25.229704
25.274401
25.318874
25.363115
25.407120
25.450882
25.494388
25.537627
25.580591
25.623279
25.665681
25.707787
25.749585
25.791068
25.832235
25.873078
25.913587
25.953749
25.993561
26.033021
26.072126
26.110864
26.149227
26.187213
26.224824
26.262060
26.298916
26.335387
26.371475
26.407190
26.442540
26.477528
26.512159
26.546443
26.580401
26.614056
26.647425
26.680526
26.713386
26.746041
26.778533
26.810904
26.843191
26.875440
26.907711
26.940070
26.972587
27.005326
27.038357
27.071763
27.105639
27.140083
27.175189
27.211051
27.247772
27.285469
27.324264
27.364275
27.405612
27.448390
27.492733
27.538772
27.586631
27.636421
27.688248
27.742217
27.798438
27.857009
27.918011
27.981501
28.047518
28.116092
28.187235
28.260917
28.337058
28.415525
28.496130
28.578624
28.662663
28.747777
28.833347
28.918580
29.002494
29.083891
29.161330
29.233148
29.297528
29.352640
29.396981
29.428926
29.448159
29.454627
23.019232
23.020566
23.024568
23.031259
23.040590
23.052487
23.066873
23.083662
23.102757
23.124052
23.147434
23.172789
23.199998
23.228946
23.259519
23.291608
23.325105
23.359909
23.395923
23.433056
23.471220
23.510334
23.550320
23.591105
23.632621
23.674804
23.717593
23.760930
23.804764
23.849046
23.893726
23.938762
23.984114
24.029744
24.075615
24.121692
24.167946
24.214348
24.260869
24.307482
24.354165
24.400897
24.447654
24.494414
24.541162
24.587882
24.634555
24.681163
24.727693
24.774133
24.820469
24.866688
24.912774
24.958720
25.004516
25.050150
25.095609
25.140883
25.185965
25.230849
25.275521
25.319971
25.364189
25.408172
25.451911
25.495395
25.538613
25.581557
25.624225
25.666607
25.708693
25.750471
25.791936
25.833085
25.873910
25.914399
25.954544
25.994338
26.033782
26.072870
26.111591
26.149937
26.187906
26.225502
26.262722
26.299561
26.336015
26.372088
26.407788
26.443123
26.478095
26.512710
26.546978
26.580921
26.614561
26.647915
26.681000
26.713844
26.746484
26.778962
26.811317
26.843588
26.875821
26.908076
26.940420
26.972921
27.005644
27.038658
27.072049
27.105909
27.140338
27.175427
27.211271
27.247976
27.285657
27.324437
27.364431
27.405752
27.448513
27.492841
27.538864
27.586708
27.636482
27.688293
27.742247
27.798453
27.857011
27.917999
27.981474
28.047477
28.116039
28.187170
28.260840
28.336969
28.415424
28.496019
28.578503
28.662533
28.747639
28.833199
28.918423
29.002332
29.083724
29.161162
29.232978
29.297360
29.352475
29.396814
29.428766
29.448031
29.454519
23.025902
23.027245
23.031256
23.037927
23.047212
23.059046
23.073357
23.090059
23.109057
23.130246
23.153515
23.178750
23.205836
23.234658
23.265103
23.297062
23.330430
23.365106
23.400993
23.438001
23.476042
23.515035
23.554902
23.595571
23.636974
23.679047
23.721728
23.764961
23.808694
23.852877
23.897462
23.942405
23.987667
24.033209
24.078994
24.124989
24.171164
24.217488
24.263934
24.310474
24.357087
24.403750
24.450440
24.497136
24.543822
24.590481
24.637095
24.683646
24.730120
24.776506
24.822790
24.868957
24.914994
24.960891
25.006640
25.052229
25.097643
25.142873
25.187914
25.232756
25.277388
25.321797
25.365977
25.409923
25.453626
25.497073
25.540255
25.583165
25.625800
25.668149
25.710201
25.751947
25.793381
25.834500
25.875294
25.915753
25.955867
25.995634
26.035049
26.074109
26.112801
26.151118
26.189061
26.226630
26.263824
26.300636
26.337063
26.373109
26.408784
26.444093
26.479039
26.513627
26.547870
26.581788
26.615403
26.648730
26.681789
26.714607
26.747222
26.779675
26.812004
26.844248
26.876454
26.908684
26.941003
26.973478
27.006173
27.039160
27.072524
27.106359
27.140761
27.175822
27.211639
27.248316
27.285971
27.324724
27.364692
27.405984
27.448718
27.493019
27.539018
27.586835
27.636583
27.688368
27.742296
27.798479
27.857014
27.917978
27.981429
28.047409
28.115950
28.187061
28.260712
28.336821
28.415256
28.495833
28.578301
28.662316
28.747407
28.832952
28.918163
29.002061
29.083447
29.160881
29.232697
29.297082
29.352203
29.396541
29.428510
29.447836
29.454361
23.035256
23.036593
23.040584
23.047209
23.056425
23.068171
23.082378
23.098960
23.117824
23.138867
23.161980
23.187051
23.213966
23.242614
23.272882
23.304663
23.337852
23.372351
23.408062
23.444896
23.482766
23.521591
23.561294
23.601803
23.643049
23.684969
23.727501
23.770589
23.814181
23.858226
23.902678
23.947492
23.992628
24.038049
24.083715
24.129596
24.175659
24.221875
24.268216
24.314655
24.361169
24.407737
24.454334
24.500940
24.547539
24.594114
24.640644
24.687115
24.733512
24.779823
24.826034
24.872129
24.918096
24.963927
25.009611
25.055134
25.100486
25.145656
25.190638
25.235423
25.279997
25.324351
25.368478
25.412372
25.456023
25.499419
25.542552
25.585414
25.628002
25.670305
25.712311
25.754011
25.795402
25.836478
25.877230
25.917646
25.957719
25.997445
26.036822
26.075841
26.114492
26.152771
26.190676
26.228209
26.265364
26.302138
26.338527
26.374538
26.410177
26.445450
26.480358
26.514909
26.549117
26.583001
26.616580
26.649870
26.682892
26.715674
26.748254
26.780672
26.812964
26.845170
26.877340
26.909534
26.941818
26.974255
27.006912
27.039861
27.073188
27.106987
27.141352
27.176374
27.212152
27.248791
27.286409
27.325126
27.365055
27.406308
27.449004
27.493269
27.539232
27.587013
27.636724
27.688471
27.742365
27.798514
27.857017
27.917948
27.981365
28.047313
28.115825
28.186909
28.260532
28.336613
28.415020
28.495573
28.578019
28.662014
28.747083
28.832608
28.917800
29.001683
29.083060
29.160488
29.232303
29.296694
29.351826
29.396166
29.428172
29.447598
29.454180
23.047196
23.048522
23.052477
23.059040
23.068168
23.079805
23.093880
23.110311
23.129006
23.149864
23.172781
23.197645
23.224346
23.252774
23.282819
23.314375
23.347339
23.381612
23.417101
23.453715
23.491368
23.529981
23.569475
23.609780
23.650826
23.692551
23.734893
23.777797
23.821210
23.865080
23.909361
23.954011
23.998987
24.044251
24.089767
24.135502
24.181423
24.227501
24.273707
24.320017
24.366406
24.412851
24.459329
24.505821
24.552309
24.598774
24.645199
24.691567
24.737866
24.784081
24.830196
24.876199
24.922079
24.967824
25.013424
25.058864
25.104135
25.149229
25.194136
25.238846
25.283347
25.327630
25.371689
25.415516
25.459101
25.502431
25.545501
25.588303
25.630830
25.673072
25.715019
25.756662
25.797998
25.839019
25.879715
25.920076
25.960096
25.999771
26.039097
26.078065
26.116665
26.154894
26.192751
26.230235
26.267342
26.304066
26.340408
26.376372
26.411966
26.447192
26.482052
26.516556
26.550718
26.584557
26.618090
26.651334
26.684308
26.717045
26.749580
26.781952
26.814197
26.846355
26.878478
26.910626
26.942863
26.975253
27.007861
27.040761
27.074041
27.107793
27.142110
27.177083
27.212810
27.249400
27.286971
27.325641
27.365520
27.406723
27.449370
27.493588
27.539506
27.587240
27.636903
27.688603
27.742452
27.798559
27.857020
27.917908
27.981282
28.047189
28.115664
28.186712
28.260300
28.336344
28.414717
28.495238
28.577657
28.661625
28.746667
28.832164
28.917333
29.001199
29.082564
29.159984
29.231798
29.296195
29.351346
29.395692
29.427765
29.447338
29.453992
23.061640
23.062950
23.066860
23.073348
23.082372
23.093877
23.107795
23.124045
23.142539
23.163179
23.185861
23.210478
23.236924
23.265089
23.294867
23.326154
23.358848
23.392853
23.428075
23.464424
23.501818
23.540174
23.579417
23.619476
23.660282
23.701772
23.743886
23.786567
23.829762
23.873420
23.917497
23.961947
24.006729
24.051805
24.097138
24.142695
24.188444
24.234354
24.280398
24.326551
24.372787
24.419083
24.465417
24.511770
24.558122
24.604455
24.650752
24.696996
24.743175
24.789272
24.835272
24.881164
24.926936
24.972577
25.018073
25.063414
25.108588
25.153587
25.198402
25.243021
25.287433
25.331631
25.375607
25.419352
25.462855
25.506107
25.549100
25.591827
25.634281
25.676449
25.718324
25.759898
25.801166
25.842119
25.882748
25.923042
25.962998
26.002611
26.041874
26.080778
26.119316
26.157485
26.195283
26.232709
26.269756
26.306420
26.342704
26.378612
26.414149
26.449317
26.484119
26.518566
26.552673
26.586457
26.619934
26.653119
26.686036
26.718717
26.751198
26.783513
26.815700
26.847800
26.879866
26.911958
26.944139
26.976470
27.009017
27.041859
27.075081
27.108776
27.143033
27.177945
27.213612
27.250143
27.287657
27.326268
27.366087
27.407229
27.449816
27.493978
27.539839
27.587516
27.637120
27.688762
27.742558
27.798613
27.857022
27.917857
27.981178
28.047037
28.115466
28.186471
28.260015
28.336015
28.414346
28.494830
28.577215
28.661149
28.746158
28.831623
28.916764
29.000609
29.081958
29.159369
29.231178
29.295583
29.350759
29.395118
29.427293
29.447057
29.453786
23.078496
23.079789
23.083647
23.090048
23.098951
23.110305
23.124043
23.140086
23.158350
23.178738
23.201151
23.225486
23.251638
23.279502
23.308973
23.339950
23.372333
23.406028
23.440941
23.476985
23.514077
23.552136
23.591088
23.630861
23.671388
23.712605
23.754452
23.796873
23.839815
23.883227
23.927064
23.971281
24.015836
24.060692
24.105812
24.151161
24.196708
24.242422
24.288277
24.334245
24.380302
24.426423
24.472589
24.518778
24.564971
24.611149
24.657295
24.703394
24.749431
24.795389
24.841256
24.887017
24.932663
24.978180
25.023555
25.068778
25.113838
25.158727
25.203433
25.247944
25.292253
25.336351
25.380229
25.423876
25.467284
25.510442
25.553345
25.595985
25.638350
25.680432
25.722223
25.763715
25.804903
25.845776
25.886325
25.926542
25.966423
26.005961
26.045150
26.083979
26.122444
26.160542
26.198271
26.235626
26.272602
26.309197
26.345413
26.381255
26.416724
26.451823
26.486558
26.520938
26.554980
26.588698
26.622107
26.655224
26.688075
26.720691
26.753106
26.785355
26.817472
26.849504
26.881503
26.913530
26.945643
26.977904
27.010381
27.043153
27.076309
27.109935
27.144121
27.178961
27.214556
27.251019
27.288465
27.327005
27.366752
27.407822
27.450341
27.494436
27.540229
27.587837
27.637372
27.688948
27.742681
27.798675
27.857021
27.917793
27.981054
28.046856
28.115232
28.186185
28.259675
28.335624
28.413907
28.494347
28.576692
28.660587
28.745556
28.830983
28.916093
28.999913
29.081243
29.158639
29.230441
29.294853
29.350059
29.394438
29.426751
29.446723
29.453513
23.097668
23.098941
23.102740
23.109043
23.117813
23.128998
23.142534
23.158347
23.176353
23.196461
23.218575
23.242596
23.268420
23.295947
23.325075
23.355705
23.387739
23.421085
23.455651
23.491351
23.528103
23.565828
23.604450
23.643900
23.684111
23.725019
23.766563
23.808689
23.851344
23.894476
23.938040
23.981992
24.026289
24.070894
24.115770
24.160882
24.206199
24.251690
24.297328
24.343085
24.388937
24.434860
24.480833
24.526834
24.572844
24.618845
24.664820
24.710752
24.756626
24.802425
24.848138
24.893751
24.939251
24.984625
25.029862
25.074951
25.119881
25.164641
25.209222
25.253611
25.297801
25.341783
25.385548
25.429083
25.472381
25.515434
25.558234
25.600771
25.643035
25.685018
25.726713
25.768111
25.809206
25.849986
25.890443
25.930572
25.970367
26.009819
26.048921
26.087665
26.126047
26.164064
26.201712
26.238985
26.275880
26.312395
26.348534
26.384298
26.419689
26.454709
26.489365
26.523670
26.557637
26.591278
26.624609
26.657648
26.690423
26.722964
26.755303
26.787473
26.819512
26.851466
26.883389
26.915339
26.947373
26.979552
27.011949
27.044644
27.077721
27.111267
27.145371
27.180128
27.215643
27.252027
27.289393
27.327851
27.367515
27.408504
27.450944
27.494961
27.540676
27.588204
27.637660
27.689160
27.742820
27.798743
27.857016
27.917716
27.980907
28.046645
28.114960
28.185852
28.259281
28.335170
28.413399
28.493790
28.576088
28.659937
28.744859
28.830245
28.915320
28.999112
29.080417
29.157793
29.229582
29.293996
29.349233
29.393636
29.426119
29.446266
29.453087
23.119047
23.120298
23.124033
23.130230
23.138854
23.149855
23.163172
23.178734
23.196460
23.216263
23.238051
23.261727
23.287194
23.314352
23.343105
23.373354
23.405005
23.437967
23.472151
23.507472
23.543849
23.581203
23.619462
23.658554
23.698414
23.738978
23.780187
23.821985
23.864319
23.907140
23.950400
23.994055
24.038065
24.082389
24.126992
24.171840
24.216899
24.262141
24.307535
24.353055
24.398678
24.444378
24.490134
24.535925
24.581730
24.627533
24.673315
24.719059
24.764749
24.810371
24.855912
24.901356
24.946692
24.991906
25.036988
25.081925
25.126708
25.171324
25.215763
25.260015
25.304072
25.347923
25.391558
25.434968
25.478144
25.521077
25.563760
25.606181
25.648331
25.690203
25.731789
25.773081
25.814070
25.854745
25.895101
25.935130
25.974826
26.014180
26.053184
26.091833
26.130122
26.168047
26.205602
26.242783
26.279586
26.316012
26.352063
26.387738
26.423040
26.457971
26.492541
26.526760
26.560640
26.594194
26.627436
26.660389
26.693078
26.725534
26.757786
26.789866
26.821816
26.853684
26.885521
26.917382
26.949326
26.981415
27.013722
27.046328
27.079316
27.112771
27.146781
27.181446
27.216870
27.253164
27.290439
27.328804
27.368374
27.409272
27.451623
27.495552
27.541177
27.588614
27.637981
27.689397
27.742974
27.798815
27.857005
27.917624
27.980738
28.046403
28.114648
28.185470
28.258830
28.334653
28.412822
28.493158
28.575403
28.659197
28.744069
28.829408
28.914444
28.998203
29.079478
29.156826
29.228595
29.293003
29.348265
29.392695
29.425361
29.445600
29.452418
23.142519
23.143748
23.147414
23.153498
23.161965
23.172770
23.185852
23.201145
23.218572
23.238049
23.259488
23.282796
23.307879
23.334642
23.362990
23.392829
23.424067
23.456614
23.490385
23.525294
23.561264
23.598215
23.636077
23.674779
23.714256
23.754445
23.795287
23.836726
23.878709
23.921187
23.964114
24.007444
24.051137
24.095153
24.139457
24.184012
24.228788
24.273753
24.318879
24.364140
24.409509
24.454963
24.500479
24.546037
24.591617
24.637199
24.682767
24.728302
24.773791
24.819216
24.864565
24.909823
24.954977
25.000014
25.044923
25.089693
25.134311
25.178766
25.223049
25.267150
25.311058
25.354763
25.398255
25.441526
25.484566
25.527366
25.569917
25.612209
25.654233
25.695983
25.737448
25.778621
25.819491
25.860050
25.900293
25.940211
25.979797
26.019041
26.057937
26.096480
26.134665
26.172486
26.209937
26.247015
26.283718
26.320045
26.355997
26.391573
26.426774
26.461608
26.496081
26.530204
26.563987
26.597442
26.630587
26.663444
26.696038
26.728397
26.760551
26.792532
26.824385
26.856156
26.887896
26.919658
26.951500
26.983488
27.015696
27.048203
27.081091
27.114442
27.148349
27.182912
27.218236
27.254429
27.291600
27.329860
27.369327
27.410124
27.452377
27.496206
27.541729
27.589065
27.638335
27.689657
27.743142
27.798889
27.856987
27.917515
27.980545
28.046129
28.114295
28.185038
28.258321
28.334072
28.412175
28.492449
28.574633
28.658368
28.743183
28.828473
28.913466
28.997186
29.078423
29.155736
29.227475
29.291865
29.347140
29.391596
29.424423
29.444648
29.451431
23.167968
23.169173
23.172767
23.178732
23.187035
23.197633
23.210469
23.225479
23.242591
23.261724
23.282794
23.305714
23.330391
23.356735
23.384654
23.414057
23.444855
23.476960
23.510289
23.544759
23.580291
23.616812
23.654247
23.692530
23.731594
23.771378
23.811823
23.852874
23.894479
23.936587
23.979151
24.022129
24.065478
24.109160
24.153138
24.197376
24.241843
24.286508
24.331342
24.376318
24.421411
24.466596
24.511851
24.557155
24.602488
24.647830
24.693163
24.738471
24.783738
24.828949
24.874087
24.919141
24.964095
25.008939
25.053660
25.098244
25.142682
25.186962
25.231074
25.275008
25.318752
25.362296
25.405632
25.448750
25.491641
25.534294
25.576700
25.618851
25.660737
25.702351
25.743683
25.784723
25.825464
25.865897
25.906015
25.945810
25.985273
26.024397
26.063175
26.101602
26.139671
26.177377
26.214715
26.251680
26.288272
26.324490
26.360331
26.395797
26.430890
26.465616
26.499983
26.533999
26.567674
26.601021
26.634060
26.666811
26.699299
26.731551
26.763595
26.795469
26.827215
26.858879
26.890510
26.922162
26.953893
26.985771
27.017871
27.050268
27.083042
27.116280
27.150074
27.184525
27.219738
27.255818
27.292874
27.331019
27.370373
27.411060
27.453202
27.496919
27.542330
27.589556
27.638720
27.689938
27.743320
27.798963
27.856959
27.917390
27.980327
28.045822
28.113899
28.184554
28.257752
28.333426
28.411458
28.491663
28.573778
28.657446
28.742201
28.827438
28.912384
28.996057
29.077249
29.154518
29.226219
29.290579
29.345847
29.390325
29.423240
29.443361
29.450087
23.195276
23.196456
23.199975
23.205816
23.213950
23.224333
23.236913
23.251630
23.268414
23.287190
23.307877
23.330390
23.354644
23.380549
23.408018
23.436964
23.467298
23.498938
23.531800
23.565805
23.600876
23.636938
23.673921
23.711757
23.750382
23.789735
23.829757
23.870393
23.911591
23.953302
23.995480
24.038079
24.081060
24.124382
24.168009
24.211906
24.256040
24.300382
24.344901
24.389570
24.434365
24.479260
24.524233
24.569262
24.614327
24.659409
24.704490
24.749552
24.794579
24.839555
24.884466
24.929298
24.974037
25.018671
25.063185
25.107570
25.151812
25.195902
25.239828
25.283579
25.327145
25.370516
25.413682
25.456634
25.499361
25.541854
25.584103
25.626100
25.667837
25.709302
25.750488
25.791385
25.831985
25.872280
25.912262
25.951922
25.991252
26.030244
26.068894
26.107194
26.145137
26.182717
26.219930
26.256774
26.293245
26.329342
26.365063
26.400409
26.435383
26.469992
26.504242
26.538141
26.571697
26.604928
26.637851
26.670486
26.702858
26.734991
26.766917
26.798674
26.830303
26.861850
26.893361
26.924892
26.956503
26.988262
27.020242
27.052517
27.085168
27.118282
27.151953
27.186283
27.221372
27.257328
27.294258
27.332279
27.371511
27.412077
27.454096
27.497690
27.542978
27.590086
27.639134
27.690238
27.743505
27.799034
27.856920
27.917245
27.980082
28.045478
28.113456
28.184015
28.257124
28.332715
28.410667
28.490795
28.572835
28.656432
28.741123
28.826303
28.911194
28.994814
29.075953
29.153172
29.224827
29.289144
29.344380
29.388876
29.421768
29.441725
29.448382
23.224326
23.225479
23.228922
23.234637
23.242596
23.252759
23.265077
23.279493
23.295940
23.314347
23.334639
23.356733
23.380548
23.405999
23.433001
23.461471
23.491323
23.522477
23.554852
23.588370
23.622955
23.658537
23.695043
23.732409
23.770571
23.809468
23.849042
23.889239
23.930007
23.971298
24.013063
24.055261
24.097849
24.140788
24.184042
24.227575
24.271354
24.315350
24.359533
24.403875
24.448350
24.492935
24.537605
24.582340
24.627118
24.671922
24.716731
24.761528
24.806297
24.851023
24.895690
24.940284
24.984790
25.029197
25.073490
25.117659
25.161692
25.205576
25.249301
25.292855
25.336230
25.379413
25.422396
25.465168
25.507718
25.550038
25.592119
25.633951
25.675524
25.716829
25.757857
25.798599
25.839048
25.879194
25.919028
25.958541
25.997727
26.036579
26.075090
26.113251
26.151056
26.188500
26.225580
26.262292
26.298631
26.334597
26.370187
26.405404
26.440251
26.474733
26.508855
26.542625
26.576055
26.609159
26.641957
26.674466
26.706709
26.738715
26.770514
26.802145
26.833647
26.865064
26.896445
26.927846
26.959327
26.990957
27.022806
27.054948
27.087465
27.120445
27.153985
27.188181
27.223136
27.258955
27.295750
27.333637
27.372737
27.413170
27.455056
27.498515
27.543673
27.590652
27.639574
27.690553
27.743694
27.799101
27.856868
27.917081
27.979807
28.045094
28.112965
28.183422
28.256435
28.331936
28.409802
28.489844
28.571802
28.655324
28.739947
28.825064
28.909895
28.993454
29.074534
29.151698
29.223300
29.287564
29.342744
29.387248
29.419999
29.439764
29.446348
23.255002
23.256130
23.259494
23.265081
23.272863
23.282803
23.294855
23.308963
23.325067
23.343099
23.362986
23.384651
23.408017
23.433001
23.459523
23.487501
23.516855
23.547506
23.579376
23.612388
23.646470
23.681550
23.717560
23.754434
23.792111
23.830530
23.869635
23.909371
23.949687
23.990534
24.031866
24.073640
24.115813
24.158348
24.201206
24.244354
24.287758
24.331388
24.375214
24.419208
24.463344
24.507599
24.551948
24.596370
24.640843
24.685349
24.729869
24.774385
24.818879
24.863337
24.907743
24.952083
24.996341
25.040505
25.084563
25.128502
25.172309
25.215973
25.259483
25.302828
25.345997
25.388980
25.431766
25.474344
25.516706
25.558842
25.600741
25.642394
25.683792
25.724925
25.765784
25.806361
25.846646
25.886631
25.926305
25.965663
26.004695
26.043395
26.081755
26.119766
26.157424
26.194724
26.231660
26.268229
26.304426
26.340250
26.375700
26.410779
26.445489
26.479832
26.513816
26.547449
26.580742
26.613712
26.646373
26.678745
26.710851
26.742719
26.774382
26.805877
26.837240
26.868518
26.899759
26.931020
26.962363
26.993853
27.025559
27.057557
27.089930
27.122768
27.156165
27.190217
27.225026
27.260698
27.297348
27.335092
27.374048
27.414337
27.456077
27.499393
27.544410
27.591252
27.640038
27.690879
27.743886
27.799161
27.856803
27.916893
27.979499
28.044667
28.112423
28.182772
28.255684
28.331087
28.408857
28.488807
28.570679
28.654122
28.738672
28.823720
28.908482
28.991974
29.072991
29.150096
29.221642
29.285846
29.340948
29.385436
29.417966
29.437542
29.444065
23.287194
23.288295
23.291582
23.297040
23.304644
23.314358
23.326141
23.339939
23.355696
23.373347
23.392824
23.414054
23.436961
23.461469
23.487500
23.514977
23.543820
23.573955
23.605304
23.637795
23.671356
23.705917
23.741413
23.777778
23.814951
23.852873
23.891488
23.930744
23.970587
24.010971
24.051850
24.093179
24.134918
24.177028
24.219472
24.262215
24.305224
24.348468
24.391917
24.435545
24.479324
24.523231
24.567240
24.611331
24.655482
24.699674
24.743888
24.788105
24.832309
24.876483
24.920612
24.964681
25.008677
25.052584
25.096391
25.140085
25.183653
25.227083
25.270365
25.313486
25.356437
25.399205
25.441781
25.484155
25.526316
25.568254
25.609960
25.651423
25.692634
25.733584
25.774263
25.814663
25.854773
25.894585
25.934090
25.973281
26.012149
26.050686
26.088884
26.126736
26.164238
26.201382
26.238164
26.274579
26.310624
26.346297
26.381599
26.416529
26.451090
26.485286
26.519122
26.552608
26.585757
26.618580
26.651094
26.683319
26.715279
26.747001
26.778519
26.809865
26.841080
26.872208
26.903301
26.934413
26.965606
26.996944
27.028496
27.060341
27.092562
27.125247
27.158490
27.192386
27.227037
27.262554
27.299050
27.336639
27.375441
27.415572
27.457158
27.500322
27.545190
27.591883
27.640520
27.691214
27.744077
27.799214
27.856721
27.916679
27.979154
28.044194
28.111829
28.182064
28.254866
28.330164
28.407830
28.487682
28.569463
28.652823
28.737295
28.822266
28.906952
28.990374
29.071325
29.148369
29.219855
29.283995
29.339008
29.383439
29.415735
29.435179
29.441677
23.320794
23.321870
23.325078
23.330407
23.337833
23.347322
23.358835
23.372322
23.387730
23.404998
23.424061
23.444851
23.467295
23.491321
23.516854
23.543820
23.572143
23.601750
23.632568
23.664525
23.697552
23.731580
23.766546
23.802385
23.839038
23.876446
23.914555
23.953312
23.992665
24.032568
24.072975
24.113842
24.155129
24.196796
24.238806
24.281126
24.323722
24.366562
24.409618
24.452862
24.496266
24.539807
24.583460
24.627203
24.671016
24.714877
24.758768
24.802671
24.846568
24.890443
24.934281
24.978065
25.021783
25.065419
25.108961
25.152396
25.195711
25.238894
25.281934
25.324819
25.367538
25.410079
25.452434
25.494590
25.536538
25.578267
25.619767
25.661028
25.702042
25.742798
25.783285
25.823496
25.863420
25.903050
25.942376
25.981389
26.020082
26.058445
26.096472
26.134155
26.171490
26.208468
26.245085
26.281337
26.317220
26.352734
26.387877
26.422648
26.457051
26.491088
26.524769
26.558100
26.591092
26.623759
26.656116
26.688185
26.719990
26.751557
26.782917
26.814105
26.845162
26.876132
26.907066
26.938020
26.969051
27.000226
27.031616
27.063298
27.095357
27.127878
27.160954
27.194683
27.229169
27.264521
27.300851
27.338275
27.376909
27.416875
27.458296
27.501299
27.546006
27.592539
27.641017
27.691555
27.744266
27.799256
27.856618
27.916433
27.978768
28.043674
28.111182
28.181295
28.253980
28.329162
28.406719
28.486468
28.568154
28.651425
28.735811
28.820698
28.905305
28.988653
29.069536
29.146515
29.217937
29.282015
29.336949
29.381278
29.413408
29.432855
29.439401
23.355702
23.356751
23.359882
23.365082
23.372330
23.381595
23.392839
23.406016
23.421075
23.437960
23.456608
23.476956
23.498935
23.522475
23.547505
23.573954
23.601750
23.630822
23.661099
23.692512
23.724993
23.758477
23.792900
23.828200
23.864319
23.901199
23.938787
23.977030
24.015878
24.055283
24.095202
24.135590
24.176407
24.217615
24.259176
24.301056
24.343222
24.385643
24.428288
24.471131
24.514144
24.557303
24.600584
24.643964
24.687422
24.730937
24.774491
24.818064
24.861640
24.905202
24.948733
24.992219
25.035644
25.078996
25.122259
25.165422
25.208471
25.251394
25.294179
25.336815
25.379290
25.421593
25.463713
25.505640
25.547362
25.588870
25.630154
25.671203
25.712007
25.752557
25.792842
25.832854
25.872582
25.912019
25.951154
25.989979
26.028486
26.066666
26.104512
26.142017
26.179174
26.215976
26.252419
26.288498
26.324211
26.359555
26.394527
26.429130
26.463365
26.497237
26.530751
26.563917
26.596743
26.629243
26.661436
26.693340
26.724979
26.756380
26.787573
26.818593
26.849482
26.880285
26.911051
26.941834
26.972694
27.003696
27.034914
27.066425
27.098309
27.130655
27.163555
27.197107
27.231417
27.266594
27.302748
27.339994
27.378450
27.418241
27.459489
27.502319
27.546855
27.593217
27.641526
27.691899
27.744450
27.799283
27.856490
27.916152
27.978340
28.043105
28.110479
28.180461
28.253019
28.328079
28.405521
28.485163
28.566749
28.649924
28.734216
28.819015
28.903540
28.986811
29.067622
29.144532
29.215887
29.279904
29.334784
29.378994
29.411098
29.430740
29.437400
23.391818
23.392842
23.395896
23.400969
23.408041
23.417084
23.428060
23.440929
23.455641
23.472144
23.490378
23.510284
23.531797
23.554849
23.579374
23.605303
23.632568
23.661099
23.690829
23.721690
23.753617
23.786546
23.820416
23.855167
23.890740
23.927081
23.964134
24.001850
24.040179
24.079074
24.118490
24.158385
24.198718
24.239451
24.280547
24.321973
24.363693
24.405679
24.447899
24.490326
24.532934
24.575696
24.618589
24.661591
24.704680
24.747835
24.791037
24.834267
24.877507
24.920741
24.963952
25.007126
25.050246
25.093299
25.136271
25.179149
25.221919
25.264569
25.307087
25.349462
25.391681
25.433734
25.475608
25.517293
25.558780
25.600056
25.641112
25.681937
25.722521
25.762854
25.802926
25.842729
25.882251
25.921484
25.960418
25.999044
26.037356
26.075343
26.112998
26.150313
26.187282
26.223899
26.260159
26.296057
26.331588
26.366752
26.401546
26.435971
26.470029
26.503725
26.537064
26.570053
26.602704
26.635030
26.667047
26.698777
26.730241
26.761465
26.792481
26.823325
26.854038
26.884663
26.915249
26.945851
26.976530
27.007352
27.038388
27.069715
27.101415
27.133574
27.166288
27.199655
27.233779
27.268769
27.304734
27.341792
27.380062
27.419668
27.460732
27.503379
27.547732
27.593913
27.642044
27.692245
27.744626
27.799290
27.856331
27.915834
27.977867
28.042485
28.109715
28.179557
28.251980
28.326912
28.404234
28.483765
28.565243
28.648314
28.732508
28.817215
28.901655
28.984847
29.065581
29.142415
29.213698
29.277654
29.332504
29.376615
29.408854
29.428747
29.435466
23.429052
23.430050
23.433028
23.437976
23.444875
23.453697
23.464410
23.476973
23.491341
23.507464
23.525288
23.544754
23.565801
23.588367
23.612386
23.637794
23.664524
23.692512
23.721689
23.751994
23.783361
23.815729
23.849039
23.883231
23.918250
23.954040
23.990549
24.027726
24.065524
24.103896
24.142797
24.182186
24.222022
24.262268
24.302886
24.343843
24.385105
24.426641
24.468422
24.510419
24.552607
24.594959
24.637451
24.680061
24.722767
24.765548
24.808384
24.851257
24.894149
24.937043
24.979921
25.022769
25.065572
25.108314
25.150982
25.193562
25.236041
25.278407
25.320647
25.362748
25.404700
25.446490
25.488107
25.529541
25.570780
25.611813
25.652630
25.693220
25.733573
25.773680
25.813529
25.853111
25.892416
25.931435
25.970159
26.008578
26.046683
26.084467
26.121921
26.159038
26.195810
26.232233
26.268299
26.304005
26.339346
26.374320
26.408926
26.443164
26.477037
26.510547
26.543700
26.576504
26.608970
26.641113
26.672946
26.704491
26.735769
26.766807
26.797638
26.828297
26.858823
26.889259
26.919656
26.950068
26.980557
27.011188