# vtk DataFile Version 3.0
Example structured points dataset
ASCII

DATASET STRUCTURED_POINTS
DIMENSIONS 151 151 2
ORIGIN 0 0 0
SPACING 0.005000 0.005000 0.005000

POINT_DATA 45602
SCALARS Transmembrane_Potential float 1
LOOKUP_TABLE default
20.380032
20.380833
20.383268
20.387425
20.393278
20.400759
20.409813
20.420387
20.432419
20.445845
20.460597
20.476605
20.493802
20.512119
20.531493
20.551862
20.573168
20.595357
20.618378
20.642182
20.666726
20.691967
20.717867
20.744390
20.771502
20.799172
20.827371
20.856071
20.885247
20.914876
20.944936
20.975405
21.006265
21.037499
21.069089
21.101019
21.133275
21.165845
21.198714
21.231871
21.265304
21.299006
21.332965
21.367171
21.401616
21.436295
21.471200
21.506323
21.541657
21.577198
21.612942
21.648883
21.685016
21.721336
21.757842
21.794532
21.831399
21.868442
21.905658
21.943049
21.980611
22.018341
22.056238
22.094304
22.132539
22.170942
22.209512
22.248248
22.287155
22.326234
22.365485
22.404908
22.444506
22.484283
22.524244
22.564390
22.604722
22.645245
22.685966
22.726890
22.768022
22.809363
22.850922
22.892706
22.934724
22.976982
23.019485
23.062242
23.105264
23.148563
23.192146
23.236022
23.280201
23.324696
23.369522
23.414691
23.460212
23.506098
23.552363
23.599026
23.646100
23.693597
23.741532
23.789919
23.838778
23.888125
23.937974
23.988338
24.039231
24.090672
24.142678
24.195263
24.248435
24.302207
24.356591
24.411602
24.467249
24.523535
24.580461
24.638032
24.696249
24.755111
24.814607
24.874722
24.935436
24.996728
25.058572
25.120929
25.183747
25.246965
25.310514
25.374311
25.438257
25.502227
25.566070
25.629610
25.692642
25.754922
25.816151
25.875969
25.933946
25.989579
26.042277
26.091359
26.136058
26.175552
26.209017
26.235757
26.255053
26.266676
26.270570
20.380834
20.381648
20.384098
20.388263
20.394113
20.401586
20.410631
20.421193
20.433214
20.446627
20.461365
20.477359
20.494540
20.512842
20.532201
20.552555
20.573846
20.596021
20.619027
20.642817
20.667347
20.692574
20.718462
20.744972
20.772071
20.799729
20.827917
20.856605
20.885770
20.915389
20.945439
20.975898
21.006749
21.037974
21.069555
21.101476
21.133724
21.166285
21.199147
21.232296
21.265722
21.299417
21.333369
21.367568
21.402007
21.436680
21.471579
21.506696
21.542024
21.577560
21.613299
21.649235
21.685362
21.721677
21.758179
21.794864
21.831727
21.868765
21.905977
21.943363
21.980921
22.018648
22.056541
22.094604
22.132835
22.171235
22.209801
22.248534
22.287437
22.326513
22.365761
22.405181
22.444776
22.484551
22.524509
22.564652
22.604981
22.645502
22.686220
22.727142
22.768270
22.809610
22.851166
22.892947
22.934963
22.977219
23.019720
23.062475
23.105495
23.148791
23.192372
23.236246
23.280423
23.324916
23.369741
23.414907
23.460427
23.506310
23.552574
23.599235
23.646307
23.693803
23.741735
23.790121
23.838978
23.888323
23.938171
23.988533
24.039424
24.090864
24.142869
24.195451
24.248622
24.302392
24.356776
24.411785
24.467430
24.523714
24.580640
24.638209
24.696425
24.755285
24.814780
24.874893
24.935606
24.996897
25.058740
25.121096
25.183913
25.247130
25.310678
25.374474
25.438419
25.502388
25.566230
25.629770
25.692801
25.755080
25.816308
25.876125
25.934102
25.989734
26.042431
26.091512
26.136210
26.175704
26.209167
26.235905
26.255201
26.266824
26.270714
20.383268
20.384098
20.386589
20.390771
20.396612
20.404065
20.413083
20.423614
20.435599
20.448973
20.463670
20.479621
20.496757
20.515014
20.534328
20.554636
20.575883
20.598013
20.620976
20.644724
20.669212
20.694399
20.720247
20.746719
20.773782
20.801404
20.829557
20.858212
20.887345
20.916932
20.946951
20.977381
21.008204
21.039401
21.070955
21.102851
21.135074
21.167611
21.200450
21.233576
21.266981
21.300654
21.334585
21.368765
21.403185
21.437839
21.472720
21.507819
21.543130
21.578650
21.614373
21.650293
21.686405
21.722706
21.759194
21.795865
21.832714
21.869739
21.906939
21.944314
21.981859
22.019574
22.057456
22.095508
22.133728
22.172117
22.210673
22.249396
22.288290
22.327356
22.366595
22.406006
22.445592
22.485359
22.525308
22.565443
22.605764
22.646277
22.686987
22.727902
22.769023
22.810354
22.851903
22.893678
22.935687
22.977936
23.020430
23.063179
23.106192
23.149483
23.193058
23.236925
23.281096
23.325583
23.370402
23.415563
23.461076
23.506954
23.553212
23.599868
23.646934
23.694425
23.742352
23.790732
23.839584
23.888925
23.938767
23.989124
24.040011
24.091446
24.143446
24.196024
24.249190
24.302955
24.357334
24.412340
24.467981
24.524260
24.581181
24.638746
24.696959
24.755815
24.815306
24.875416
24.936125
24.997413
25.059252
25.121605
25.184419
25.247632
25.311177
25.374971
25.438913
25.502879
25.566718
25.630255
25.693284
25.755561
25.816787
25.876602
25.934576
25.990206
26.042902
26.091983
26.136681
26.176174
26.209636
26.236371
26.255662
26.267290
26.271198
20.387424
20.388263
20.390770
20.394946
20.400762
20.408178
20.417151
20.427630
20.439556
20.452867
20.467495
20.483375
20.500439
20.518622
20.537860
20.558094
20.579267
20.601324
20.624215
20.647892
20.672312
20.697433
20.723216
20.749625
20.776626
20.804189
20.832284
20.860884
20.889963
20.919498
20.949467
20.979848
21.010624
21.041775
21.073285
21.105138
21.137320
21.169818
21.202617
21.235706
21.269074
21.302713
21.336610
21.370756
21.405145
21.439768
21.474619
21.509688
21.544972
21.580464
21.616161
21.652055
21.688142
21.724419
21.760883
21.797531
21.834358
21.871361
21.908540
21.945894
21.983420
22.021115
22.058978
22.097012
22.135215
22.173586
22.212124
22.250831
22.289709
22.328760
22.367983
22.407378
22.446950
22.486702
22.526638
22.566759
22.607066
22.647566
22.688264
22.729166
22.770274
22.811593
22.853130
22.894894
22.936892
22.979129
23.021612
23.064349
23.107353
23.150633
23.194197
23.238054
23.282214
23.326692
23.371501
23.416653
23.462156
23.508024
23.554274
23.600920
23.647978
23.695459
23.743377
23.791749
23.840593
23.889925
23.939759
23.990107
24.040986
24.092413
24.144406
24.196976
24.250134
24.303892
24.358263
24.413262
24.468895
24.525168
24.582082
24.639640
24.697846
24.756696
24.816181
24.876284
24.936987
24.998269
25.060104
25.122450
25.185258
25.248467
25.312006
25.375796
25.439734
25.503695
25.567530
25.631062
25.694087
25.756361
25.817583
25.877394
25.935365
25.990992
26.043686
26.092766
26.137463
26.176956
26.210419
26.237150
26.256443
26.268090
26.272013
20.393276
20.394113
20.396612
20.400761
20.406536
20.413900
20.422811
20.433218
20.445063
20.458286
20.472821
20.488602
20.505566
20.523646
20.542781
20.562912
20.583983
20.605939
20.628731
20.652312
20.676637
20.701665
20.727358
20.753680
20.780596
20.808077
20.836092
20.864614
20.893619
20.923082
20.952980
20.983294
21.014004
21.045092
21.076540
21.108333
21.140458
21.172900
21.205645
21.238682
21.272000
21.305589
21.339439
21.373539
21.407883
21.442464
21.477272
21.512301
21.547545
21.583000
21.618659
21.654517
21.690569
21.726812
21.763244
21.799860
21.836655
21.873628
21.910779
21.948104
21.985601
22.023269
22.061106
22.099114
22.137292
22.175639
22.214153
22.252837
22.291693
22.330721
22.369922
22.409297
22.448848
22.488581
22.528497
22.568598
22.608886
22.649368
22.690048
22.730932
22.772023
22.813325
22.854845
22.896593
22.938575
22.980796
23.023263
23.065985
23.108974
23.152240
23.195789
23.239631
23.283778
23.328242
23.373038
23.418175
23.463665
23.509520
23.555757
23.602391
23.649436
23.696904
23.744810
23.793170
23.842002
23.891323
23.941144
23.991480
24.042348
24.093765
24.145747
24.198305
24.251452
24.305199
24.359561
24.414550
24.470173
24.526436
24.583339
24.640888
24.699086
24.757927
24.817403
24.877496
24.938190
24.999465
25.061292
25.123631
25.186431
25.249632
25.313165
25.376948
25.440880
25.504834
25.568662
25.632188
25.695209
25.757478
25.818695
25.878500
25.936466
25.992090
26.044782
26.093860
26.138557
26.178052
26.211517
26.238247
26.257549
26.269232
26.273175
20.400756
20.401586
20.404065
20.408177
20.413900
20.421198
20.430030
20.440345
20.452089
20.465201
20.479618
20.495277
20.512114
20.530065
20.549071
20.569072
20.590014
20.611843
20.634510
20.657968
20.682173
20.707084
20.732663
20.758873
20.785682
20.813058
20.840972
20.869396
20.898305
20.927676
20.957485
20.987712
21.018338
21.049345
21.080715
21.112433
21.144484
21.176854
21.209530
21.242501
21.275755
21.309281
21.343069
21.377111
21.411399
21.445924
21.480678
21.515655
21.550849
21.586255
21.621867
21.657678
21.693686
21.729886
21.766275
21.802850
21.839605
21.876540
21.913653
21.950941
21.988403
22.026035
22.063839
22.101815
22.139960
22.178275
22.216759
22.255414
22.294241
22.333241
22.372413
22.411761
22.451286
22.490994
22.530884
22.570960
22.611224
22.651682
22.692340
22.733201
22.774269
22.815549
22.857049
22.898776
22.940737
22.982937
23.025384
23.068087
23.111058
23.154304
23.197834
23.241657
23.285786
23.330234
23.375012
23.420131
23.465603
23.511442
23.557662
23.604281
23.651309
23.698761
23.746650
23.794995
23.843813
23.893118
23.942924
23.993245
24.044098
24.095501
24.147469
24.200013
24.253146
24.306879
24.361228
24.416204
24.471815
24.528064
24.584954
24.642492
24.700678
24.759508
24.818971
24.879053
24.939737
25.001002
25.062819
25.125148
25.187937
25.251128
25.314653
25.378428
25.442352
25.506298
25.570117
25.633636
25.696650
25.758912
25.820123
25.879921
25.937881
25.993500
26.046190
26.095267
26.139964
26.179461
26.212933
26.239664
26.258988
26.270724
26.274693
20.409810
20.410631
20.413083
20.417150
20.422810
20.430029
20.438766
20.448973
20.460595
20.473576
20.487853
20.503366
20.520052
20.537851
20.556702
20.576549
20.597337
20.619014
20.641531
20.664842
20.688903
20.713673
20.739115
20.765192
20.791871
20.819121
20.846913
20.875218
20.904013
20.933271
20.962972
20.993095
21.023620
21.054528
21.085804
21.117430
21.149392
21.181676
21.214268
21.247158
21.280333
21.313783
21.347498
21.381469
21.415687
21.450145
21.484834
21.519748
21.554881
21.590228
21.625781
21.661536
21.697490
21.733637
21.769975
21.806499
21.843206
21.880094
21.917161
21.954405
21.991822
22.029413
22.067176
22.105112
22.143218
22.181494
22.219941
22.258560
22.297352
22.336317
22.375455
22.414770
22.454264
22.493940
22.533799
22.573844
22.614079
22.654510
22.695139
22.735972
22.777013
22.818266
22.859740
22.901442
22.943378
22.985553
23.027975
23.070655
23.113602
23.156825
23.200332
23.244133
23.288240
23.332666
23.377423
23.422520
23.467971
23.513789
23.559990
23.606589
23.653597
23.701028
23.748898
23.797225
23.846024
23.895311
23.945098
23.995400
24.046236
24.097622
24.149573
24.202100
24.255214
24.308932
24.363265
24.418226
24.473820
24.530052
24.586928
24.644451
24.702623
24.761439
24.820888
24.880955
24.941626
25.002879
25.064684
25.127001
25.189777
25.252957
25.316471
25.380237
25.444150
25.508085
25.571894
25.635404
25.698411
25.760666
25.821868
25.881658
25.939610
25.995225
26.047911
26.096987
26.141684
26.181185
26.214666
26.241403
26.260761
26.272568
26.276566
20.420383
20.421193
20.423613
20.427629
20.433216
20.440344
20.448972
20.459054
20.470538
20.483368
20.497487
20.512833
20.529347
20.546970
20.565644
20.585314
20.605925
20.627427
20.649771
20.672912
20.696807
20.721415
20.746698
20.772620
20.799149
20.826252
20.853901
20.882069
20.910729
20.939858
20.969433
20.999434
21.029840
21.060634
21.091799
21.123317
21.155175
21.187357
21.219852
21.252647
21.285731
21.319091
21.352720
21.386607
21.420744
21.455123
21.489736
21.524576
21.559637
21.594914
21.630399
21.666088
21.701978
21.738064
21.774341
21.810806
21.847456
21.884289
21.921302
21.958493
21.995859
22.033400
22.071115
22.109004
22.147063
22.185294
22.223698
22.262275
22.301025
22.339949
22.379047
22.418324
22.457780
22.497419
22.537242
22.577251
22.617452
22.657848
22.698445
22.739245
22.780253
22.821475
22.862919
22.904591
22.946496
22.988641
23.031035
23.073688
23.116608
23.159803
23.203282
23.247056
23.291138
23.335539
23.380270
23.425342
23.470768
23.516562
23.562740
23.609315
23.656299
23.703707
23.751555
23.799860
23.848637
23.897901
23.947665
23.997947
24.048762
24.100128
24.152058
24.204564
24.257658
24.311357
24.365672
24.420614
24.476188
24.532402
24.589259
24.646766
24.704922
24.763720
24.823152
24.883203
24.943859
25.005097
25.066888
25.129189
25.191951
25.255117
25.318620
25.382373
25.446274
25.510197
25.573994
25.637495
25.700492
25.762738
25.823930
25.883710
25.941655
25.997264
26.049946
26.099019
26.143716
26.183221
26.216715
26.243460
26.262868
26.274755
26.278778
20.432416
20.433214
20.435598
20.439555
20.445062
20.452088
20.460594
20.470538
20.481868
20.494532
20.508473
20.523634
20.539957
20.557385
20.575862
20.595334
20.615747
20.637053
20.659204
20.682154
20.705862
20.730286
20.755390
20.781138
20.807496
20.834434
20.861922
20.889933
20.918442
20.947423
20.976855
21.006717
21.036989
21.067653
21.098690
21.130086
21.161825
21.193892
21.226276
21.258962
21.291940
21.325199
21.358729
21.392521
21.426565
21.460853
21.495379
21.530134
21.565113
21.600309
21.635717
21.671331
21.707148
21.743162
21.779370
21.815767
21.852352
21.889122
21.926073
21.963203
22.000510
22.037995
22.075654
22.113488
22.151494
22.189674
22.228028
22.266556
22.305258
22.344134
22.383188
22.422420
22.461833
22.501429
22.541209
22.581178
22.621340
22.661698
22.702255
22.743017
22.783988
22.825175
22.866584
22.908221
22.950091
22.992203
23.034564
23.077185
23.120073
23.163236
23.206684
23.250428
23.294480
23.338852
23.383554
23.428596
23.473994
23.519761
23.565912
23.612458
23.659415
23.706796
23.754618
23.802898
23.851650
23.900888
23.950627
24.000884
24.051676
24.103018
24.154924
24.207406
24.260477
24.314154
24.368447
24.423367
24.478920
24.535111
24.591949
24.649436
24.707572
24.766351
24.825762
24.885795
24.946434
25.007656
25.069429
25.131713
25.194459
25.257610
25.321098
25.384838
25.448725
25.512633
25.576418
25.639907
25.702894
25.765128
25.826309
25.886078
25.944015
25.999617
26.052294
26.101363
26.146057
26.185565
26.219073
26.245829
26.265301
26.277260
26.281299
20.445842
20.446627
20.448972
20.452865
20.458284
20.465199
20.473575
20.483368
20.494531
20.507015
20.520764
20.535724
20.551840
20.569055
20.587317
20.606573
20.626770
20.647862
20.669800
20.692540
20.716042
20.740264
20.765170
20.790725
20.816895
20.843649
20.870958
20.898796
20.927135
20.955952
20.985225
21.014932
21.045054
21.075572
21.106468
21.137727
21.169333
21.201271
21.233530
21.266095
21.298955
21.332100
21.365519
21.399203
21.433143
21.467330
21.501758
21.536418
21.571304
21.606410
21.641730
21.677260
21.712994
21.748928
21.785057
21.821380
21.857891
21.894589
21.931469
21.968532
22.005774
22.043194
22.080791
22.118562
22.156509
22.194631
22.232929
22.271401
22.310049
22.348872
22.387875
22.427057
22.466421
22.505968
22.545701
22.585625
22.625741
22.666055
22.706569
22.747288
22.788218
22.829365
22.870734
22.912331
22.954162
22.996236
23.038561
23.081145
23.123997
23.167124
23.210536
23.254247
23.298266
23.342604
23.387272
23.432281
23.477647
23.523384
23.569503
23.616018
23.662944
23.710295
23.758088
23.806339
23.855062
23.904270
23.953981
24.004211
24.054977
24.106292
24.158170
24.210624
24.263671
24.317322
24.371591
24.426486
24.482013
24.538181
24.594996
24.652461
24.710575
24.769331
24.828720
24.888732
24.949352
25.010554
25.072308
25.134572
25.197299
25.260434
25.323907
25.387630
25.451500
25.515393
25.579164
25.642640
25.705615
25.767836
25.829004
25.888762
25.946689
26.002284
26.054954
26.104016
26.148707
26.188215
26.221735
26.248505
26.268047
26.280050
26.284093
20.460593
20.461364
20.463669
20.467494
20.472819
20.479616
20.487852
20.497486
20.508472
20.520764
20.534309
20.549055
20.564949
20.581938
20.599970
20.618993
20.638958
20.659818
20.681527
20.704041
20.727319
20.751322
20.776014
20.801358
20.827322
20.853876
20.880991
20.908638
20.936792
20.965429
20.994528
21.024065
21.054022
21.084379
21.115120
21.146228
21.177688
21.209484
21.241604
21.274036
21.306767
21.339786
21.373082
21.406647
21.440472
21.474547
21.508866
21.543420
21.578204
21.613210
21.648434
21.683870
21.719512
21.755357
21.791401
21.827639
21.864069
21.900686
21.937490
21.974477
22.011645
22.048994
22.086521
22.124225
22.162106
22.200164
22.238398
22.276808
22.315395
22.354161
22.393106
22.432233
22.471542
22.511035
22.550716
22.590589
22.630656
22.670920
22.711385
22.752057
22.792941
22.834043
22.875367
22.916920
22.958708
23.000740
23.043024
23.085567
23.128378
23.171465
23.214839
23.258512
23.302493
23.346793
23.391424
23.436397
23.481728
23.527430
23.573514
23.619994
23.666885
23.714204
23.761965
23.810183
23.858872
23.908048
23.957728
24.007928
24.058663
24.109947
24.161795
24.214220
24.267238
24.320862
24.375103
24.429969
24.485469
24.541610
24.598400
24.655840
24.713928
24.772658
24.832024
24.892014
24.952611
25.013792
25.075523
25.137766
25.200473
25.263590
25.327044
25.390750
25.454601
25.518477
25.582232
25.645695
25.708656
25.770862
25.832016
25.891762
25.949679
26.005264
26.057925
26.106978
26.151661
26.191167
26.224694
26.251477
26.271085
26.283095
26.287128
20.476601
20.477358
20.479619
20.483373
20.488600
20.495275
20.503365
20.512831
20.523633
20.535723
20.549054
20.563576
20.579237
20.595987
20.613776
20.632554
20.652273
20.672887
20.694352
20.716624
20.739664
20.763433
20.787894
20.813013
20.838756
20.865095
20.891998
20.919440
20.947395
20.975838
21.004747
21.034100
21.063878
21.094062
21.124634
21.155578
21.186878
21.218520
21.250491
21.282776
21.315365
21.348247
21.381410
21.414846
21.448544
21.482497
21.516697
21.551136
21.585808
21.620705
21.655823
21.691156
21.726698
21.762446
21.798395
21.834541
21.870880
21.907411
21.944129
21.981034
22.018122
22.055392
22.092842
22.130472
22.168280
22.206267
22.244432
22.282774
22.321296
22.359998
22.398880
22.437945
22.477193
22.516628
22.556252
22.596068
22.636079
22.676289
22.716702
22.757322
22.798156
22.839207
22.880482
22.921986
22.963728
23.005714
23.047952
23.090449
23.133215
23.176259
23.219591
23.263222
23.307161
23.351419
23.396009
23.440943
23.486235
23.531897
23.577943
23.624385
23.671239
23.718521
23.766246
23.814427
23.863080
23.912221
23.961867
24.012033
24.062734
24.113984
24.165799
24.218192
24.271179
24.324772
24.378981
24.433816
24.489285
24.545399
24.602160
24.659572
24.717632
24.776334
24.835674
24.895639
24.956212
25.017368
25.079074
25.141294
25.203980
25.267076
25.330510
25.394195
25.458026
25.521884
25.585624
25.649070
25.712015
25.774205
25.835343
25.895077
25.952982
26.008556
26.061205
26.110246
26.154919
26.194417
26.227945
26.254740
26.274390
26.286371
26.290385
20.493797
20.494539
20.496756
20.500437
20.505563
20.512111
20.520051
20.529345
20.539956
20.551839
20.564948
20.579237
20.594656
20.611157
20.628692
20.647214
20.666675
20.687032
20.708240
20.730258
20.753046
20.776566
20.800783
20.825663
20.851172
20.877281
20.903960
20.931184
20.958925
20.987160
21.015866
21.045022
21.074609
21.104606
21.134997
21.165764
21.196893
21.228369
21.260177
21.292305
21.324741
21.357475
21.390494
21.423789
21.457352
21.491173
21.525244
21.559558
21.594108
21.628888
21.663891
21.699112
21.734546
21.770188
21.806034
21.842080
21.878322
21.914758
21.951385
21.988199
22.025200
22.062384
22.099751
22.137300
22.175030
22.212939
22.251028
22.289297
22.327748
22.366379
22.405193
22.444190
22.483373
22.522744
22.562306
22.602060
22.642011
22.682162
22.722517
22.763081
22.803859
22.844856
22.886077
22.927529
22.969219
23.011154
23.053342
23.095790
23.138508
23.181504
23.224790
23.268374
23.312267
23.356480
23.401026
23.445918
23.491167
23.536786
23.582788
23.629189
23.676003
23.723245
23.770930
23.819071
23.867685
23.916788
23.966397
24.016525
24.067189
24.118402
24.170181
24.222539
24.275492
24.329050
24.383225
24.438026
24.493463
24.549545
24.606276
24.663656
24.721685
24.780358
24.839669
24.899607
24.960153
25.021281
25.082961
25.145156
25.207820
25.270893
25.334304
25.397966
25.461776
25.525615
25.589336
25.652765
25.715691
25.777864
25.838987
25.898706
25.956599
26.012159
26.064794
26.113820
26.158480
26.197965
26.231485
26.258290
26.277940
26.289866
26.293853
20.512114
20.512841
20.515013
20.518619
20.523643
20.530063
20.537849
20.546968
20.557384
20.569054
20.581937
20.595987
20.611157
20.627402
20.644675
20.662931
20.682125
20.702214
20.723154
20.744907
20.767432
20.790693
20.814654
20.839282
20.864544
20.890411
20.916854
20.943845
20.971361
20.999375
21.027867
21.056814
21.086196
21.115995
21.146193
21.176772
21.207718
21.239016
21.270651
21.302612
21.334885
21.367459
21.400324
21.433469
21.466886
21.500565
21.534499
21.568679
21.603098
21.637751
21.672631
21.707732
21.743049
21.778578
21.814313
21.850251
21.886389
21.922723
21.959251
21.995968
22.032874
22.069967
22.107244
22.144706
22.182350
22.220176
22.258184
22.296374
22.334747
22.373303
22.412042
22.450967
22.490079
22.529382
22.568875
22.608563
22.648449
22.688536
22.728829
22.769332
22.810050
22.850987
22.892150
22.933546
22.975180
23.017061
23.059194
23.101589
23.144254
23.187200
23.230434
23.273968
23.317811
23.361976
23.406475
23.451319
23.496521
23.542094
23.588051
23.634407
23.681177
23.728375
23.776016
23.824114
23.872686
23.921748
23.971316
24.021404
24.072027
24.123200
24.174940
24.227261
24.280176
24.333696
24.387833
24.442599
24.498002
24.554049
24.610746
24.668091
24.726087
24.784729
24.844010
24.903918
24.964433
25.025531
25.087184
25.149352
25.211990
25.275038
25.338424
25.402062
25.465850
25.529668
25.593370
25.656779
25.719685
25.781839
25.842946
25.902650
25.960528
26.016072
26.068689
26.117700
26.162344
26.201813
26.235316
26.262125
26.281732
26.293584
26.297543
20.531488
20.532200
20.534326
20.537857
20.542778
20.549068
20.556700
20.565642
20.575860
20.587316
20.599969
20.613775
20.628692
20.644675
20.661680
20.679664
20.698583
20.718395
20.739060
20.760538
20.782790
20.805781
20.829476
20.853841
20.878846
20.904460
20.930655
20.957404
20.984682
21.012465
21.040730
21.069457
21.098624
21.128213
21.158207
21.188588
21.219340
21.250450
21.281902
21.313685
21.345784
21.378190
21.410891
21.443876
21.477138
21.510666
21.544453
21.578490
21.612771
21.647289
21.682037
21.717010
21.752202
21.787610
21.823227
21.859051
21.895077
21.931301
21.967722
22.004336
22.041141
22.078136
22.115317
22.152685
22.190237
22.227974
22.265896
22.304001
22.342290
22.380765
22.419425
22.458272
22.497309
22.536537
22.575957
22.615574
22.655390
22.695410
22.735636
22.776073
22.816725
22.857599
22.898701
22.940035
22.981609
23.023430
23.065505
23.107843
23.150453
23.193343
23.236523
23.280002
23.323793
23.367906
23.412353
23.457146
23.502297
23.547820
23.593728
23.640037
23.686759
23.733910
23.781503
23.829556
23.878083
23.927101
23.976624
24.026667
24.077246
24.128378
24.180076
24.232356
24.285230
24.338709
24.392807
24.447534
24.502899
24.558909
24.615568
24.672877
24.730838
24.789446
24.848694
24.908568
24.969051
25.030118
25.091741
25.153881
25.216492
25.279512
25.342870
25.406483
25.470248
25.534044
25.597724
25.661110
25.723995
25.786131
25.847220
25.906908
25.964767
26.020293
26.072892
26.121886
26.166512
26.205963
26.239439
26.266243
26.285772
26.297548
26.301481
20.551857
20.552553
20.554634
20.558091
20.562909
20.569069
20.576546
20.585312
20.595332
20.606571
20.618992
20.632553
20.647213
20.662931
20.679664
20.697370
20.716009
20.735539
20.755920
20.777116
20.799087
20.821800
20.845220
20.869313
20.894051
20.919402
20.945339
20.971836
20.998867
21.026408
21.054437
21.082932
21.111874
21.141244
21.171024
21.201196
21.231745
21.262657
21.293916
21.325510
21.357427
21.389655
21.422183
21.455000
21.488098
21.521466
21.555098
21.588984
21.623118
21.657492
21.692101
21.726938
21.761999
21.797277
21.832770
21.868471
21.904378
21.940487
21.976794
22.013299
22.049996
22.086886
22.123965
22.161233
22.198689
22.236331
22.274159
22.312174
22.350375
22.388762
22.427338
22.466103
22.505059
22.544207
22.583550
22.623091
22.662833
22.702779
22.742933
22.783300
22.823884
22.864690
22.905725
22.946995
22.988504
23.030262
23.072275
23.114552
23.157102
23.199932
23.243053
23.286475
23.330209
23.374267
23.418658
23.463396
23.508493
23.553963
23.599820
23.646077
23.692748
23.739847
23.787391
23.835394
23.883874
23.932843
23.982318
24.032314
24.082848
24.133934
24.185588
24.237823
24.290652
24.344088
24.398144
24.452830
24.508155
24.564124
24.620742
24.678013
24.735937
24.794508
24.853720
24.913559
24.974007
25.035041
25.096632
25.158742
25.221322
25.284312
25.347642
25.411228
25.474969
25.538741
25.602396
25.665759
25.728622
25.790738
25.851808
25.911477
25.969316
26.024822
26.077403
26.126378
26.170986
26.210416
26.243861
26.270645
26.290086
26.301804
26.305723
20.573163
20.573844
20.575881
20.579264
20.583980
20.590011
20.597334
20.605923
20.615745
20.626769
20.638957
20.652272
20.666674
20.682125
20.698583
20.716009
20.734363
20.753606
20.773699
20.794606
20.816291
20.838718
20.861855
20.885670
20.910132
20.935212
20.960883
20.987118
21.013893
21.041183
21.068966
21.097222
21.125930
21.155071
21.184626
21.214581
21.244918
21.275622
21.306680
21.338078
21.369803
21.401844
21.434190
21.466830
21.499756
21.532956
21.566424
21.600151
21.634130
21.668354
21.702816
21.737510
21.772431
21.807574
21.842934
21.878506
21.914287
21.950274
21.986463
22.022850
22.059434
22.096213
22.133184
22.170347
22.207699
22.245241
22.282971
22.320889
22.358996
22.397293
22.435779
22.474456
22.513325
22.552390
22.591651
22.631111
22.670774
22.710642
22.750720
22.791012
22.831523
22.872258
22.913222
22.954421
22.995863
23.037553
23.079501
23.121713
23.164198
23.206965
23.250024
23.293385
23.337059
23.381057
23.425389
23.470069
23.515109
23.560523
23.606324
23.652525
23.699141
23.746187
23.793678
23.841629
23.890056
23.938974
23.988398
24.038344
24.088829
24.139867
24.191473
24.243660
24.296442
24.349833
24.403844
24.458486
24.513766
24.569692
24.626269
24.683499
24.741383
24.799915
24.859088
24.918888
24.979300
25.040300
25.101857
25.163934
25.226480
25.289439
25.352740
25.416298
25.480012
25.543757
25.607386
25.670724
25.733565
25.795660
25.856709
25.916356
25.974174
26.029660
26.082221
26.131178
26.175766
26.215175
26.248593
26.275339
26.294712
26.306423
26.310358
20.595352
20.596019
20.598011
20.601320
20.605936
20.611840
20.619011
20.627424
20.637051
20.647860
20.659816
20.672886
20.687031
20.702213
20.718395
20.735538
20.753605
20.772558
20.792360
20.812974
20.834367
20.856503
20.879352
20.902881
20.927061
20.951863
20.977261
21.003227
21.029737
21.056769
21.084298
21.112306
21.140771
21.169674
21.198999
21.228727
21.258843
21.289332
21.320179
21.351372
21.382897
21.414744
21.446900
21.479356
21.512101
21.545126
21.578423
21.611983
21.645800
21.679865
21.714173
21.748717
21.783492
21.818492
21.853713
21.889150
21.924800
21.960657
21.996720
22.032985
22.069450
22.106112
22.142969
22.180021
22.217264
22.254700
22.292326
22.330144
22.368152
22.406352
22.444743
22.483327
22.522106
22.561082
22.600256
22.639630
22.679209
22.718996
22.758994
22.799207
22.839641
22.880299
22.921188
22.962314
23.003683
23.045303
23.087180
23.129323
23.171740
23.214441
23.257434
23.300731
23.344340
23.388274
23.432544
23.477163
23.522143
23.567497
23.613238
23.659380
23.705938
23.752927
23.800362
23.848258
23.896630
23.945492
23.994863
24.044757
24.095190
24.146176
24.197730
24.249866
24.302599
24.355942
24.409906
24.464500
24.519733
24.575613
24.632146
24.689333
24.747174
24.805664
24.864795
24.924556
24.984930
25.045892
25.107414
25.169454
25.231966
25.294892
25.358162
25.421691
25.485375
25.549091
25.612693
25.676006
25.738824
25.800896
25.861922
25.921546
25.979342
26.034807
26.087348
26.136284
26.180851
26.220240
26.253639
26.280343
26.299698
26.311477
26.315454
20.618372
20.619024
20.620973
20.624211
20.628728
20.634506
20.641528
20.649769
20.659202
20.669798
20.681525
20.694350
20.708238
20.723153
20.739059
20.755920
20.773699
20.792360
20.811867
20.832186
20.853282
20.875124
20.897679
20.920918
20.944811
20.969329
20.994447
21.020138
21.046378
21.073143
21.100412
21.128164
21.156379
21.185038
21.214123
21.243617
21.273504
21.303770
21.334400
21.365380
21.396698
21.428343
21.460302
21.492565
21.525122
21.557965
21.591084
21.624471
21.658118
21.692018
21.726165
21.760552
21.795174
21.830026
21.865101
21.900396
21.935907
21.971630
22.007561
22.043698
22.080037
22.116577
22.153315
22.190250
22.227380
22.264704
22.302222
22.339933
22.377837
22.415934
22.454226
22.492713
22.531397
22.570279
22.609361
22.648646
22.688137
22.727838
22.767751
22.807881
22.848233
22.888811
22.929621
22.970670
23.011963
23.053508
23.095311
23.137381
23.179727
23.222357
23.265281
23.308509
23.352050
23.395918
23.440122
23.484676
23.529592
23.574882
23.620560
23.666641
23.713138
23.760068
23.807443
23.855279
23.903592
23.952398
24.001712
24.051550
24.101927
24.152858
24.204358
24.256442
24.309123
24.362414
24.416327
24.470870
24.526055
24.581887
24.638373
24.695514
24.753309
24.811754
24.870843
24.930562
24.990895
25.051818
25.113300
25.175303
25.237779
25.300671
25.363908
25.427404
25.491057
25.554743
25.618317
25.681605
25.744397
25.806444
25.867445
25.927045
25.984819
26.040262
26.092782
26.141695
26.186240
26.225609
26.258998
26.285667
26.305067
26.316943
26.320947
20.642177
20.642815
20.644721
20.647889
20.652308
20.657964
20.664838
20.672909
20.682152
20.692538
20.704039
20.716623
20.730256
20.744906
20.760537
20.777115
20.794606
20.812974
20.832185
20.852207
20.873005
20.894549
20.916809
20.939753
20.963354
20.987584
21.012417
21.037827
21.063790
21.090284
21.117287
21.144777
21.172735
21.201142
21.229981
21.259235
21.288887
21.318923
21.349327
21.380088
21.411192
21.442627
21.474382
21.506446
21.538810
21.571463
21.604396
21.637603
21.671074
21.704803
21.738783
21.773007
21.807470
21.842166
21.877090
21.912237
21.947604
21.983186
22.018980
22.054983
22.091191
22.127603
22.164217
22.201030
22.238040
22.275248
22.312652
22.350252
22.388047
22.426038
22.464226
22.502611
22.541194
22.579978
22.618964
22.658156
22.697555
22.737164
22.776989
22.817031
22.857297
22.897791
22.938519
22.979487
23.020700
23.062165
23.103891
23.145885
23.188156
23.230712
23.273562
23.316717
23.360188
23.403986
23.448121
23.492607
23.537454
23.582678
23.628290
23.674306
23.720740
23.767605
23.814917
23.862691
23.910943
23.959688