# vtk DataFile Version 3.0
Example structured points dataset
ASCII

DATASET STRUCTURED_POINTS
DIMENSIONS 151 151 2
ORIGIN 0 0 0
SPACING 0.005000 0.005000 0.005000

POINT_DATA 45602
SCALARS Transmembrane_Potential float 1
LOOKUP_TABLE default
25.378123
25.380041
25.385807
25.395452
25.408850
25.425794
25.446082
25.469503
25.495828
25.524813
25.556206
25.589744
25.625166
25.662210
25.700625
25.740163
25.780592
25.821689
25.863243
25.905059
25.946952
25.988751
26.030299
26.071449
26.112064
26.152025
26.191214
26.229526
26.266867
26.303153
26.338301
26.372235
26.404895
26.436221
26.466155
26.494643
26.521646
26.547125
26.571034
26.593335
26.614004
26.633011
26.650325
26.665911
26.679752
26.691828
26.702114
26.710578
26.717200
26.721966
26.724857
26.725842
26.724893
26.721995
26.717132
26.710278
26.701396
26.690461
26.677456
26.662360
26.645134
26.625740
26.604146
26.580333
26.554269
26.525906
26.495196
26.462103
26.426599
26.388639
26.348165
26.305116
26.259447
26.211116
26.160068
26.106225
26.049513
25.989870
25.927238
25.861543
25.792689
25.720575
25.645115
25.566230
25.483820
25.397759
25.307912
25.214157
25.116376
25.014436
24.908166
24.797380
24.681898
24.561548
24.436137
24.305433
24.169169
24.027078
23.878897
23.724342
23.563080
23.394726
23.218874
23.035113
22.843010
22.642073
22.431730
22.211354
21.980298
21.737880
21.483344
21.215816
20.934323
20.637823
20.325215
19.995295
19.646693
19.277855
18.887079
18.472543
18.032264
17.564013
17.065240
16.533041
15.964089
15.354325
14.698165
13.986763
13.204104
12.317773
11.256949
9.860824
7.755872
4.058156
-3.186919
-16.362359
-31.357570
-43.234281
-51.910350
-58.117588
-62.525127
-65.644042
-67.846419
-69.398338
-70.488459
-71.249748
-71.775238
-72.129222
-72.355037
-72.480342
-72.520505
25.380044
25.381973
25.387744
25.397381
25.410752
25.427660
25.447907
25.471282
25.497558
25.526492
25.557830
25.591312
25.626676
25.663662
25.702018
25.741497
25.781868
25.822906
25.864403
25.906163
25.948000
25.989746
26.031242
26.072341
26.112908
26.152821
26.191964
26.230232
26.267531
26.303776
26.338883
26.372780
26.405403
26.436694
26.466593
26.495049
26.522021
26.547469
26.571349
26.593622
26.614264
26.633245
26.650533
26.666095
26.679913
26.691967
26.702230
26.710673
26.717274
26.722021
26.724892
26.725858
26.724891
26.721975
26.717095
26.710224
26.701325
26.690374
26.677354
26.662242
26.645001
26.625591
26.603983
26.580156
26.554077
26.525699
26.494975
26.461868
26.426350
26.388377
26.347888
26.304825
26.259143
26.210799
26.159737
26.105880
26.049154
25.989497
25.926851
25.861142
25.792273
25.720144
25.644670
25.565770
25.483345
25.397268
25.307405
25.213633
25.115837
25.013879
24.907591
24.796787
24.681286
24.560917
24.435487
24.304761
24.168475
24.026361
23.878157
23.723578
23.562290
23.393908
23.218027
23.034236
22.842103
22.641133
22.430753
22.210339
21.979242
21.736783
21.482202
21.214625
20.933079
20.636523
20.323856
19.993873
19.645202
19.276289
18.885434
18.470813
18.030445
17.562097
17.063216
16.530899
15.961814
15.351894
14.695543
13.983886
13.200867
12.313972
11.252170
9.854197
7.745476
4.039434
-3.223368
-16.419510
-31.406928
-43.270740
-51.936387
-58.135994
-62.538092
-65.653160
-67.852828
-69.402842
-70.491630
-71.251991
-71.776846
-72.130403
-72.355946
-72.481096
-72.521224
25.385811
25.387747
25.393529
25.403133
25.416427
25.433232
25.453358
25.476600
25.502731
25.531511
25.562688
25.596002
25.631194
25.668005
25.706184
25.745488
25.785682
25.826547
25.867873
25.909465
25.951138
25.992724
26.034065
26.075012
26.115433
26.155204
26.194210
26.232346
26.269517
26.305639
26.340628
26.374410
26.406924
26.438109
26.467906
26.496264
26.523142
26.548499
26.572291
26.594480
26.615042
26.633945
26.651157
26.666646
26.680394
26.692380
26.702577
26.710956
26.717496
26.722184
26.724997
26.725905
26.724883
26.721915
26.716984
26.710061
26.701112
26.690112
26.677046
26.661887
26.644599
26.625143
26.603491
26.579622
26.553500
26.525078
26.494310
26.461163
26.425604
26.387589
26.347057
26.303952
26.258230
26.209846
26.158742
26.104843
26.048074
25.988376
25.925690
25.859938
25.791024
25.718850
25.643333
25.564390
25.481919
25.395794
25.305881
25.212061
25.114217
25.012209
24.905866
24.795005
24.679449
24.559024
24.433534
24.302745
24.166392
24.024210
23.875936
23.721285
23.559919
23.391453
23.215485
23.031605
22.839379
22.638308
22.427820
22.207290
21.976074
21.733489
21.478773
21.211049
20.929343
20.632619
20.319775
19.989603
19.640724
19.271585
18.880487
18.465609
18.024966
17.556318
17.057106
16.524422
15.954930
15.344546
14.687630
13.975236
13.191164
12.302598
11.237854
9.834307
7.714253
3.983177
-3.332988
-16.590854
-31.554592
-43.379809
-52.014288
-58.191046
-62.576843
-65.680398
-67.871973
-69.416317
-70.501144
-71.258756
-71.781723
-72.134016
-72.358757
-72.483467
-72.523422
25.395455
25.397384
25.403134
25.412649
25.425805
25.442440
25.462370
25.485395
25.511290
25.539818
25.570729
25.603767
25.638676
25.675199
25.713087
25.752099
25.792004
25.832581
25.873625
25.914939
25.956341
25.997663
26.038745
26.079443
26.119621
26.159157
26.197936
26.235852
26.272813
26.308731
26.343522
26.377116
26.409448
26.440457
26.470084
26.498280
26.525003
26.550208
26.573853
26.595904
26.616332
26.635105
26.652190
26.667558
26.681191
26.693064
26.703151
26.711423
26.717862
26.722452
26.725168
26.725980
26.724867
26.721812
26.716795
26.709785
26.700752
26.689673
26.676529
26.661293
26.643926
26.624394
26.602670
26.578729
26.552534
26.524039
26.493200
26.459984
26.424358
26.386273
26.345670
26.302496
26.256706
26.208256
26.157083
26.103111
26.046272
25.986506
25.923752
25.857929
25.788940
25.716692
25.641103
25.562087
25.479540
25.393334
25.303340
25.209440
25.111515
25.009422
24.902989
24.792034
24.676384
24.555865
24.430277
24.299381
24.162916
24.020620
23.872232
23.717460
23.555963
23.387358
23.211244
23.027216
22.834835
22.633597
22.422926
22.202204
21.970788
21.727994
21.473052
21.205081
20.923110
20.626106
20.312967
19.982477
19.633251
19.263733
18.872229
18.456922
18.015819
17.546667
17.046899
16.513602
15.943431
15.332268
14.674407
13.960781
13.174952
12.283600
11.213961
9.801147
7.662171
3.889009
-3.516890
-16.876440
-31.799673
-43.560704
-52.143471
-58.282339
-62.641106
-65.725574
-67.903733
-69.438675
-70.516937
-71.269991
-71.789829
-72.140024
-72.363431
-72.487400
-72.527106
25.408853
25.410756
25.416428
25.425806
25.438772
25.455176
25.474842
25.497571
25.523143
25.551326
25.581872
25.614532
25.649050
25.685176
25.722664
25.761274
25.800778
25.840960
25.881613
25.922543
25.963569
26.004524
26.045250
26.085600
26.125443
26.164653
26.203116
26.240728
26.277396
26.313029
26.347547
26.380878
26.412957
26.443721
26.473112
26.501083
26.527588
26.552583
26.576025
26.597882
26.618123
26.636714
26.653623
26.668824
26.682295
26.694011
26.703943
26.712067
26.718365
26.722817
26.725397
26.726077
26.724837
26.721660
26.716522
26.709393
26.700243
26.689052
26.675799
26.660454
26.642978
26.623340
26.601515
26.577474
26.551177
26.522580
26.491642
26.458330
26.422609
26.384425
26.343723
26.300452
26.254570
26.206025
26.154754
26.100683
26.043746
25.983885
25.921035
25.855110
25.786018
25.713667
25.637977
25.558859
25.476204
25.389885
25.299778
25.205766
25.107728
25.005514
24.898954
24.787870
24.672090
24.551439
24.425711
24.294665
24.158044
24.015590
23.867041
23.712098
23.550418
23.381617
23.205301
23.021066
22.828467
22.626992
22.416066
22.195075
21.963380
21.720292
21.465032
21.196715
20.914372
20.616976
20.303423
19.972487
19.622773
19.252723
18.860652
18.444741
18.002990
17.533129
17.032578
16.498418
15.927290
15.315029
14.655836
13.940475
13.152182
12.256931
11.180462
9.754716
7.589147
3.756267
-3.776938
-17.276119
-32.140561
-43.812066
-52.322950
-58.409183
-62.730405
-65.788357
-67.947876
-69.469755
-70.538895
-71.285614
-71.801103
-72.148382
-72.369935
-72.492876
-72.532250
25.425797
25.427663
25.433233
25.442441
25.455177
25.471299
25.490638
25.512999
25.538170
25.565920
25.596010
25.628194
25.662222
25.697848
25.734830
25.772934
25.811933
25.851614
25.891772
25.932217
25.972768
26.013258
26.053530
26.093441
26.132856
26.171652
26.209715
26.246941
26.283234
26.318505
26.352676
26.385672
26.417428
26.447879
26.476971
26.504655
26.530881
26.555607
26.578791
26.600401
26.620402
26.638760
26.655445
26.670431
26.683695
26.695208
26.704944
26.712880
26.718997
26.723271
26.725677
26.726188
26.724787
26.721452
26.716159
26.708875
26.699578
26.688244
26.674851
26.659364
26.641749
26.621977
26.600022
26.575851
26.549423
26.520695
26.489631
26.456197
26.420351
26.382041
26.341212
26.297819
26.251816
26.203149
26.151751
26.097553
26.040492
25.980509
25.917534
25.851479
25.782253
25.709771
25.633952
25.554701
25.471906
25.385443
25.295191
25.201037
25.102851
25.000482
24.893758
24.782508
24.666562
24.545741
24.419831
24.288592
24.151771
24.009116
23.860358
23.705195
23.543276
23.374224
23.197651
23.013149
22.820267
22.618486
22.407231
22.185896
21.953843
21.710375
21.454703
21.185939
20.903119
20.605219
20.291134
19.959620
19.609274
19.238540
18.845739
18.429053
17.986463
17.515682
17.014116
16.478842
15.906475
15.292792
14.631872
13.914270
13.122806
12.222556
11.137357
9.695055
7.495065
3.583880
-4.115934
-17.789467
-32.574978
-44.131995
-52.551348
-58.570609
-62.844064
-65.868279
-68.004079
-69.509333
-70.566860
-71.305515
-71.815467
-72.159033
-72.378226
-72.499861
-72.538816
25.446085
25.447910
25.453360
25.462372
25.474843
25.490639
25.509595
25.531524
25.556220
25.583459
25.613008
25.644626
25.678071
25.713102
25.749482
25.786981
25.825377
25.864458
25.904025
25.943887
25.983868
26.023799
26.063528
26.102909
26.141810
26.180107
26.217687
26.254447
26.290288
26.325124
26.358875
26.391466
26.422830
26.452905
26.481635
26.508969
26.534858
26.559258
26.582130
26.603439
26.623148
26.641225
26.657639
26.672365
26.685376
26.696643
26.706141
26.713849
26.719745
26.723802
26.725996
26.726304
26.724707
26.721179
26.715695
26.708226
26.698749
26.687241
26.673675
26.658016
26.640233
26.620298
26.598184
26.573852
26.547264
26.518378
26.487162
26.453577
26.417578
26.379113
26.338132
26.294590
26.248439
26.199621
26.148069
26.093717
26.036506
25.976373
25.913242
25.847027
25.777641
25.705001
25.629023
25.549608
25.466641
25.380002
25.289576
25.195247
25.096879
24.994318
24.887395
24.775943
24.659796
24.538764
24.412630
24.281155
24.144092
24.001190
23.852177
23.696741
23.534530
23.365173
23.188285
23.003457
22.810226
22.608068
22.396412
22.174658
21.942167
21.698232
21.442053
21.172740
20.889337
20.590824
20.276084
19.943860
19.592738
19.221167
18.827474
18.409836
17.966214
17.494299
16.991484
16.454839
15.880950
15.265513
14.602466
13.882119
13.086790
12.180469
11.084691
9.622234
7.379656
3.370104
-4.537897
-18.415665
-33.100015
-44.518095
-52.826931
-58.765399
-62.981235
-65.964749
-68.071929
-69.557119
-70.600631
-71.329551
-71.832818
-72.171902
-72.388246
-72.508304
-72.546754
25.469505
25.471285
25.476602
25.485396
25.497572
25.513000
25.531525
25.552965
25.577122
25.603778
25.632709
25.663681
25.696459
25.730808
25.766497
25.803300
25.841001
25.879392
25.918276
25.957466
25.996786
26.036073
26.075171
26.113938
26.152242
26.189961
26.226980
26.263196
26.298512
26.332842
26.366103
26.398221
26.429129
26.458765
26.487072
26.513996
26.539491
26.563512
26.586019
26.606974
26.626342
26.644089
26.660187
26.674607
26.687320
26.698299
26.707520
26.714960
26.720594
26.724397
26.726344
26.726414
26.724584
26.720828
26.715120
26.707434
26.697747
26.686033
26.672261
26.656400
26.638421
26.618296
26.595991
26.571470
26.544693
26.515624
26.484228
26.450463
26.414283
26.375636
26.334477
26.290760
26.244433
26.195435
26.143700
26.089169
26.031782
25.971470
25.908154
25.841750
25.772176
25.699350
25.623183
25.543572
25.460401
25.373557
25.282927
25.188390
25.089805
24.987015
24.879858
24.768171
24.651784
24.530500
24.404100
24.272347
24.135000
23.991807
23.842489
23.686727
23.524170
23.354454
23.177197
22.991980
22.798333
22.595727
22.383598
22.161350
21.928340
21.683848
21.427065
21.157103
20.873014
20.573775
20.258256
19.925184
19.573141
19.200581
18.805835
18.387067
17.942214
17.468944
16.964646
16.426373
15.850672
15.233145
14.567574
13.843986
13.044120
12.130694
11.022547
9.536284
7.242289
3.112121
-5.048418
-19.153395
-33.712175
-44.967519
-53.147638
-58.992104
-63.140906
-66.077064
-68.150936
-69.612773
-70.639968
-71.357554
-71.853036
-72.186899
-72.399926
-72.518147
-72.556011
25.495830
25.497561
25.502733
25.511291
25.523145
25.538171
25.556221
25.577122
25.600682
25.626694
25.654939
25.685194
25.717229
25.750817
25.785734
25.821760
25.858684
25.896302
25.934419
25.972854
26.011432
26.049990
26.088378
26.126453
26.164083
26.201147
26.237531
26.273132
26.307853
26.341607
26.374312
26.405893
26.436283
26.465420
26.493244
26.519703
26.544749
26.568338
26.590428
26.610979
26.629958
26.647330
26.663066
26.677135
26.689507
26.700158
26.709062
26.716194
26.721528
26.725039
26.726705
26.726501
26.724404
26.720386
26.714422
26.706488
26.696560
26.684607
26.670599
26.654508
26.636304
26.615958
26.593434
26.568694
26.541702
26.512423
26.480820
26.446846
26.410455
26.371601
26.330239
26.286320
26.239788
26.190581
26.138639
26.083903
26.026311
25.965790
25.902260
25.835641
25.765852
25.692812
25.616424
25.536584
25.453180
25.366102
25.275236
25.180457
25.081618
24.978565
24.871140
24.759184
24.642517
24.520940
24.394230
24.262158
24.124486
23.980957
23.831283
23.675141
23.512186
23.342059
23.164374
22.978706
22.784572
22.581448
22.368775
22.145959
21.912346
21.667205
21.409721
21.139011
20.854130
20.554052
20.237627
19.903569
19.550459
19.176759
18.780796
18.360715
17.914425
17.439581
16.933560
16.393402
15.815597
15.195643
14.527153
13.799846
12.994795
12.073273
10.950984
9.437031
7.081607
2.805487
-5.655046
-20.000788
-34.407460
-45.477033
-53.511124
-59.249069
-63.321922
-66.204416
-68.240539
-69.675902
-70.684595
-71.389328
-71.875981
-72.203923
-72.413186
-72.529325
-72.566522
25.524816
25.526495
25.531514
25.539820
25.551327
25.565921
25.583460
25.603779
25.626694
25.652007
25.679509
25.708984
25.740210
25.772969
25.807044
25.842220
25.878291
25.915060
25.952336
25.989940
26.027700
26.065456
26.103059
26.140368
26.177252
26.213591
26.249271
26.284190
26.318250
26.351363
26.383450
26.414434
26.444246
26.472825
26.500110
26.526051
26.550596
26.573701
26.595323
26.615424
26.633968
26.650920
26.666249
26.679923
26.691916
26.702199
26.710746
26.717531
26.722528
26.725713
26.727062
26.726550
26.724150
26.719837
26.713588
26.705375
26.695172
26.682949
26.668677
26.652327
26.633871
26.613274
26.590500
26.565514
26.538282
26.508766
26.476925
26.442714
26.406088
26.367002
26.325410
26.281259
26.234493
26.185051
26.132877
26.077911
26.020085
25.959325
25.895553
25.828692
25.758662
25.685376
25.608736
25.528636
25.444969
25.357628
25.266495
25.171437
25.072308
24.968959
24.861235
24.748972
24.631986
24.510072
24.383012
24.250581
24.112541
23.968627
23.818544
23.661971
23.498567
23.327976
23.149805
22.963618
22.768929
22.565218
22.351931
22.128469
21.894168
21.648283
21.390000
21.118443
20.832667
20.531631
20.214170
19.878986
19.524665
19.149672
18.752325
18.330741
17.882807
17.406164
16.898185
16.355882
15.775677
15.152959
14.481167
13.749679
12.938819
12.008221
10.869929
9.323827
6.895041
2.443558
-6.367551
-20.955441
-35.181489
-46.043100
-53.914810
-59.534466
-63.522998
-66.345908
-68.340109
-69.746066
-70.734206
-71.424655
-71.901497
-72.222858
-72.427938
-72.541761
-72.578218
25.556208
25.557833
25.562690
25.570731
25.581874
25.596012
25.613009
25.632710
25.654940
25.679510
25.706219
25.734860
25.765222
25.797093
25.830263
25.864525
25.899679
25.935533
25.971900
26.008604
26.045479
26.082365
26.119116
26.155592
26.191665
26.227213
26.262125
26.296298
26.329635
26.362049
26.393458
26.423787
26.452966
26.480932
26.507628
26.532997
26.556991
26.579563
26.600671
26.620276
26.638340
26.654827
26.669707
26.682947
26.694520
26.704396
26.712548
26.718949
26.723574
26.726398
26.727396
26.726540
26.723806
26.719168
26.712601
26.704078
26.693568
26.681046
26.666481
26.649845
26.631106
26.610228
26.587177
26.561921
26.534421
26.504640
26.472533
26.438058
26.401171
26.361827
26.319977
26.275567
26.228539
26.178838
26.126406
26.071181
26.013091
25.952064
25.888024
25.820895
25.750595
25.677032
25.600107
25.519718
25.435762
25.348127
25.256692
25.161319
25.061867
24.958189
24.850131
24.737523
24.620175
24.497884
24.370435
24.237605
24.099152
23.954803
23.804260
23.647204
23.483302
23.312190
23.133471
22.946697
22.751386
22.547021
22.333049
22.108861
21.873780
21.627058
21.367882
21.095380
20.808600
20.506484
20.187852
19.851403
19.495729
19.119290
18.720383
18.297102
17.847313
17.368650
16.858476
16.313764
15.730861
15.105046
14.429576
13.693455
12.876157
11.935448
10.778997
9.195205
6.678320
2.017105
-7.197827
-22.014449
-36.029609
-46.661953
-54.355932
-59.846322
-63.742744
-66.500565
-68.448963
-69.822787
-70.788461
-71.463298
-71.929413
-72.243578
-72.444083
-72.555374
-72.591021
25.589747
25.591315
25.596005
25.603770
25.614534
25.628196
25.644628
25.663683
25.685195
25.708984
25.734860
25.762625
25.792075
25.823008
25.855221
25.888515
25.922696
25.957576
25.992975
26.028721
26.064649
26.100605
26.136443
26.172027
26.207227
26.241926
26.276011
26.309381
26.341939
26.373597
26.404273
26.433893
26.462387
26.489691
26.515745
26.540495
26.563890
26.585884
26.606433
26.625497
26.643037
26.659019
26.673410
26.686177
26.697291
26.706721
26.714441
26.720424
26.724643
26.727072
26.727683
26.726452
26.723352
26.718359
26.711443
26.702577
26.691733
26.678883
26.663997
26.647045
26.627993
26.606807
26.583454
26.557900
26.530105
26.500029
26.467630
26.432866
26.395693
26.356064
26.313928
26.269230
26.221916
26.171931
26.119215
26.063700
26.005318
25.943997
25.879663
25.812239
25.741638
25.667766
25.590528
25.509823
25.425548
25.337586
25.245812
25.150092
25.050285
24.946246
24.837817
24.724823
24.607072
24.484364
24.356488
24.223218
24.084303
23.939467
23.788414
23.630828
23.466375
23.294686
23.115352
22.927926
22.731926
22.526840
22.312108
22.087110
21.851159
21.603506
21.343344
21.069797
20.781900
20.478577
20.158639
19.820789
19.463617
19.085572
18.684926
18.259748
17.807893
17.326991
16.814384
16.266993
15.681090
15.051846
14.372326
13.631105
12.806690
11.854656
10.677276
9.048550
6.425218
1.514476
-8.159169
-23.174372
-36.946965
-47.329658
-54.831576
-60.182548
-63.979679
-66.667343
-68.566369
-69.905549
-70.847001
-71.505001
-71.959544
-72.265946
-72.461516
-72.570075
-72.604849
25.625169
25.626679
25.631197
25.638678
25.649053
25.662224
25.678073
25.696461
25.717230
25.740211
25.765223
25.792076
25.820577
25.850531
25.881744
25.914024
25.947185
25.981043
26.015423
26.050158
26.085088
26.120060
26.154931
26.189568
26.223843
26.257638
26.290844
26.323357
26.355083
26.385934
26.415829
26.444691
26.472450
26.499043
26.524410
26.548495
26.571247
26.592619
26.612566
26.631047
26.648025
26.663462
26.677325
26.689580
26.700197
26.709147
26.716401
26.721931
26.725709
26.727708
26.727902
26.726265
26.722769
26.717387
26.710092
26.700855
26.689648
26.676442
26.661207
26.643909
26.624517
26.602997
26.579316
26.553436
26.525317
26.494920
26.462204
26.427126
26.389640
26.349698
26.307248
26.262237
26.214613
26.164317
26.111287
26.055456
25.996755
25.935115
25.870460
25.802710
25.731777
25.657567
25.579988
25.498939
25.414313
25.325990
25.233844
25.137743
25.037550
24.933116
24.824277
24.710856
24.592664
24.469502
24.341159
24.207402
24.067977
23.922605
23.770993
23.612828
23.447770
23.275441
23.095428
22.907284
22.710532
22.504656
22.289085
22.063189
21.826277
21.577604
21.316361
21.041664
20.752530
20.447871
20.126496
19.787110
19.428293
19.048475
18.645902
18.218627
17.764499
17.281137
16.765850
16.215504
15.626295
14.993288
14.309332
13.562500
12.730163
11.765234
10.563175
8.880010
6.127877
0.922564
-9.264765
-24.431064
-37.928474
-48.042117
-55.338702
-60.540954
-64.232247
-66.845145
-68.691554
-69.993810
-70.909442
-71.549491
-71.991697
-72.289821
-72.480126
-72.585771
-72.619613
25.662214
25.663666
25.668008
25.675202
25.685179
25.697851
25.713105
25.730810
25.750819
25.772971
25.797094
25.823009
25.850531
25.879475
25.909654
25.940883
25.972984
26.005779
26.039099
26.072780
26.106665
26.140608
26.174466
26.208109
26.241410
26.274254
26.306532
26.338142
26.368990
26.398988
26.428053
26.456111
26.483092
26.508931
26.533566
26.556944
26.579011
26.599719
26.619025
26.636885
26.653261
26.668116
26.681413
26.693121
26.703208
26.711643
26.718397
26.723440
26.726744
26.728284
26.728030
26.725955
26.722032
26.716232
26.708528
26.698892
26.687294
26.673704
26.658089
26.640420
26.620662
26.598783
26.574745
26.548511
26.520042
26.489299
26.456241
26.420822
26.382996
26.342713
26.299925
26.254578
26.206617
26.155982
26.102609
26.046434
25.987390
25.925404
25.860400
25.792294
25.720999
25.646424
25.568477
25.487053
25.402042
25.313323
25.220773
25.124262
25.023650
24.918783
24.809494
24.695607
24.576937
24.453283
24.324430
24.190139
24.050154
23.904198
23.751982
23.593187
23.427465
23.254433
23.073677
22.884753
22.687184
22.480442
22.263949
22.037068
21.799108
21.549325
21.286904
21.010946
20.720452
20.414330
20.091388
19.750327
19.389711
19.007944
18.603254
18.173683
17.717076
17.231029
16.712807
16.159220
15.566394
14.929280
14.240466
13.487424
12.646150
11.666212
10.434425
8.684847
5.777918
0.228552
-10.525484
-25.779317
-38.968708
-48.795040
-55.874139
-60.919259
-64.498829
-67.032826
-68.823712
-70.087004
-70.975385
-71.596486
-72.025667
-72.315050
-72.499797
-72.602365
-72.635222
25.700628
25.702021
25.706188
25.713090
25.722666
25.734833
25.749485
25.766499
25.785736
25.807045
25.830264
25.855222
25.881745
25.909654
25.938772
25.968923
25.999933
26.031632
26.063856
26.096447
26.129251
26.162125
26.194930
26.227538
26.259825
26.291676
26.322984
26.353649
26.383576
26.412678
26.440873
26.468086
26.494247
26.519290
26.543155
26.565786
26.587129
26.607137
26.625764
26.642966
26.658704
26.672940
26.685639
26.696766
26.706288
26.714175
26.720395
26.724920
26.727722
26.728770
26.728037
26.725495
26.721115
26.714870
26.706730
26.696667
26.684649
26.670646
26.654627
26.636560
26.616410
26.594143
26.569721
26.543108
26.514265
26.483152
26.449724
26.413937
26.375744
26.335097
26.291945
26.246235
26.197909
26.146907
26.093167
26.036624
25.977210
25.914850
25.849466
25.780975
25.709291
25.634325
25.555979
25.474147
25.388717
25.299573
25.206590
25.109636
25.008567
24.903228
24.793451
24.679063
24.559878
24.435691
24.306281
24.171408
24.030817
23.884233
23.731363
23.571881
23.405434
23.231637
23.050078
22.860313
22.661855
22.454171
22.236671
22.008719
21.769626
21.518641
21.254938
20.977600
20.685623
20.377913
20.053275
19.710395
19.347816
18.963921
18.556924
18.124863
17.665567
17.176597
16.655174
16.098052
15.501292
14.859704
14.165551
13.405574
12.554060
11.556316
10.288386
8.458377
5.368134
-0.578277
-11.947380
-27.212411
-40.061706
-49.583878
-56.434572
-61.315092
-64.777745
-67.229204
-68.962012
-70.184545
-71.044417
-71.645692
-72.061244
-72.341478
-72.520407
-72.619754
-72.651580
25.740167
25.741501
25.745491
25.752102
25.761277
25.772937
25.786984
25.803302
25.821762
25.842221
25.864526
25.888516
25.914025
25.940884
25.968923
25.997974
26.027871
26.058449
26.089551
26.121021
26.152713
26.184486
26.216205
26.247742
26.278979
26.309802
26.340104
26.369786
26.398755
26.426924
26.454212
26.480543
26.505847
26.530058
26.553116
26.574964
26.595548
26.614820
26.632732
26.649242
26.664309
26.677894
26.689961
26.700474
26.709400
26.716707
26.722365
26.726342
26.728609
26.729137
26.727896
26.724859
26.719995
26.713277
26.704673
26.694154
26.681690
26.667249
26.650799
26.632307
26.611738
26.589057
26.564227
26.537211
26.507968
26.476457
26.442633
26.406453
26.367869
26.326833
26.283293
26.237192
26.188474
26.137080
26.082948
26.026010
25.966197
25.903434
25.837642
25.768740
25.696641
25.621253
25.542476
25.460204
25.374326
25.284725
25.191277
25.093845
24.992282
24.886433
24.776134
24.661209
24.541468
24.416703
24.286691
24.151191
24.009949
23.862690
23.709112
23.548885
23.381653
23.207032
23.024610
22.833937
22.634517
22.425807
22.207218
21.978114
21.737801
21.485516
21.220418
20.941583
20.648005
20.338583
20.012114
19.667262
19.302549
18.916344
18.506855
18.072107
17.609901
17.117760
16.592858
16.031904
15.430879
14.784413
14.084369
13.316584
12.453197
11.434172
10.122661
8.197207
4.893856
-1.505993
-13.529654
-28.721762
-41.200829
-50.403782
-57.016537
-61.726005
-65.067271
-67.433066
-69.105603
-70.285836
-71.116117
-71.696812
-72.098212
-72.368948
-72.541834
-72.637835
-72.668591
25.780596
25.781871
25.785686
25.792007
25.800782
25.811936
25.825380
25.841004
25.858686
25.878293
25.899681
25.922698
25.947186
25.972985
25.999933
26.027871
26.056638
26.086078
26.116036
26.146365
26.176920
26.207566
26.238170
26.268610
26.298766
26.328529
26.357794
26.386462
26.414441
26.441645
26.467992
26.493408
26.517822
26.541168
26.563386
26.584418
26.604210
26.622713
26.639880
26.655666
26.670030
26.682933
26.694337
26.704206
26.712506
26.719205
26.724270
26.727670
26.729375
26.729354
26.727579
26.724019
26.718644
26.711424
26.702330
26.691330
26.678394
26.663489
26.646582
26.627640
26.606626
26.583507
26.558244
26.530799
26.501130
26.469195
26.434952
26.398355
26.359355
26.317904
26.273947
26.227430
26.178296
26.126485
26.071934
26.014574
25.954334
25.891140
25.824914
25.755574
25.683031
25.607189
25.527950
25.445208
25.358853
25.268765
25.174816
25.076869
24.974776
24.868384
24.757527
24.642026
24.521686
24.396298
24.265639
24.129469
23.987532
23.839546
23.685203
23.524172
23.356098
23.180597
22.997249
22.805595
22.605134
22.395319
22.175563
21.945223
21.703595
21.449905
21.183300
20.902854
20.607555
20.296295
19.967850
19.620864
19.253845
18.865153
18.452986
18.015345
17.549996
17.054422
16.525761
15.960673
15.355033
14.703243
13.996677
13.220065
12.342870
11.298627
9.935785
7.899981
4.352475
-2.562190
-15.263892
-30.296942
-42.378766
-51.249613
-57.616437
-62.149481
-65.365648
-67.643182
-69.253622
-70.390270
-71.190058
-71.749542
-72.136355
-72.397297
-72.563953
-72.656503
-72.686156
25.821693
25.822910
25.826551
25.832585
25.840963
25.851617
25.864461
25.879395
25.896304
25.915062
25.935535
25.957578
25.981044
26.005780
26.031633
26.058450
26.086078
26.114366
26.143168
26.172338
26.201739
26.231238
26.260707
26.290025
26.319078
26.347757
26.375958
26.403585
26.430546
26.456755
26.482133
26.506605
26.530100
26.552552
26.573900
26.594087
26.613058
26.630763
26.647154
26.662187
26.675819
26.688011
26.698724
26.707921
26.715567
26.721629
26.726074
26.728870
26.729986
26.729390
26.727053
26.722943
26.717031
26.709285
26.699675
26.688169
26.674736
26.659341
26.641952
26.622534
26.601053
26.577471
26.551749
26.523849
26.493730
26.461348
26.426661
26.389621
26.350180
26.308287
26.263889
26.216932
26.167358
26.115104
26.060105
26.002295
25.941603
25.877953
25.811266
25.741458
25.668439
25.592114
25.512385
25.429144
25.342280
25.251671
25.157186
25.058688
24.956033
24.849063
24.737609
24.621489
24.500507
24.374454
24.243107
24.106223
23.963540
23.814771
23.659608
23.497719
23.328748
23.152304
22.967960
22.775251
22.573672
22.362678
22.141674
21.910009
21.666966
21.411762
21.143540
20.861370
20.564231
20.250995
19.920420
19.571136
19.201642
18.810288
18.395249
17.954495
17.485757
16.986486
16.453786
15.884249
15.273616
14.616014
13.902233
13.115650
12.222516
11.149032
9.727458
7.566475
3.739862
-3.759051
-17.135129
-31.926229
-43.587760
-52.116058
-58.230600
-62.582974
-65.671102
-67.858313
-69.405203
-70.497241
-71.265813
-71.803579
-72.175454
-72.426365
-72.586639
-72.675654
-72.704176
25.863247
25.864407
25.867877
25.873629
25.881616
25.891776
25.904028
25.918279
25.934422
25.952339
25.971902
25.992977
26.015425
26.039100
26.063857
26.089551
26.116036
26.143168
26.170804
26.198805
26.227039
26.255376
26.283694
26.311875
26.339806
26.367380
26.394497
26.421060
26.446980
26.472173
26.496557
26.520059
26.542609
26.564140
26.584593
26.603907
26.622031
26.638911
26.654501
26.668754
26.681628
26.693082
26.703076
26.711575
26.718541
26.723941
26.727740
26.729906
26.730407
26.729211
26.726286
26.721603
26.715128
26.706832
26.696681
26.684644
26.670688
26.654779
26.636885
26.616968
26.594994
26.570924
26.544719
26.516341
26.485748
26.452895
26.417739
26.380231
26.340324
26.297966
26.253103
26.205681
26.155638
26.102914
26.047443
25.989158
25.927987
25.863854
25.796677
25.726372
25.652848
25.576012
25.495763
25.411993
25.324586
25.233420
25.138367
25.039287
24.936034
24.828447
24.716356
24.599575
24.477911
24.351153
24.219073
24.081426
23.937943
23.788338
23.632303
23.469503
23.299574
23.122120
22.936708
22.742871
22.540103
22.327851
22.105513
21.872426
21.627866
21.371043
21.101097
20.817087
20.517976
20.202618
19.869758
19.518017
19.145881
18.751680
18.333561
17.889462
17.417086
16.913855
16.376828
15.802512
15.186481
14.522546
13.800803
13.003018
12.091769
10.985214
9.497662
7.194446
3.044402
-5.118599
-19.124517
-33.597616
-44.820022
-52.997811
-58.855371
-63.023952
-65.981871
-68.077231
-69.559487
-70.606145
-71.342957
-71.858622
-72.215293
-72.455992
-72.609767
-72.695183
-72.722553
25.905063
25.906167
25.909469
25.914943
25.922547
25.932220
25.943891
25.957469
25.972857
25.989942
26.008607
26.028723
26.050160
26.072781
26.096448
26.121022
26.146365
26.172339
26.198805
26.225633
26.252692
26.279860
26.307017
26.334047
26.360842
26.387297
26.413313
26.438796
26.463656
26.487811
26.511181
26.533692
26.555275
26.575864
26.595398
26.613818
26.631069
26.647101
26.661864
26.675313
26.687405
26.698096
26.707349
26.715125
26.721386
26.726099
26.729228
26.730740
26.730602
26.728781
26.725246
26.719964
26.712904
26.704032
26.693317
26.680725
26.666224
26.649778
26.631354
26.610914
26.588423
26.563842
26.537132
26.508253
26.477161
26.443812
26.408163
26.370164
26.329767
26.286919
26.241566
26.193652
26.143116
26.089897
26.033929
25.975143
25.913466
25.848820
25.781125
25.710295
25.636240