# vtk DataFile Version 3.0
Example structured points dataset
ASCII

DATASET STRUCTURED_POINTS
DIMENSIONS 151 151 2
ORIGIN 0 0 0
SPACING 0.005000 0.005000 0.005000

POINT_DATA 45602
SCALARS Transmembrane_Potential float 1
LOOKUP_TABLE default
19.283861
19.284548
19.286641
19.290220
19.295255
19.301676
19.309429
19.318461
19.328713
19.340125
19.352634
19.366177
19.380691
19.396118
19.412400
19.429483
19.447318
19.465857
19.485058
19.504879
19.525285
19.546240
19.567714
19.589676
19.612100
19.634961
19.658236
19.681905
19.705946
19.730343
19.755080
19.780139
19.805507
19.831172
19.857121
19.883341
19.909824
19.936560
19.963540
19.990755
20.018197
20.045861
20.073740
20.101826
20.130116
20.158604
20.187287
20.216159
20.245216
20.274456
20.303877
20.333475
20.363246
20.393190
20.423305
20.453591
20.484045
20.514665
20.545452
20.576406
20.607527
20.638814
20.670267
20.701887
20.733677
20.765636
20.797765
20.830064
20.862538
20.895188
20.928017
20.961025
20.994214
21.027589
21.061155
21.094913
21.128865
21.163015
21.197368
21.231931
21.266706
21.301695
21.336905
21.372341
21.408010
21.443917
21.480065
21.516460
21.553110
21.590023
21.627204
21.664657
21.702389
21.740408
21.778723
21.817341
21.856266
21.895504
21.935064
21.974955
22.015183
22.055754
22.096673
22.137946
22.179581
22.221586
22.263965
22.306719
22.349853
22.393372
22.437280
22.481578
22.526266
22.571341
22.616802
22.662648
22.708875
22.755475
22.802436
22.849746
22.897396
22.945368
22.993643
23.042195
23.090994
23.140010
23.189209
23.238547
23.287973
23.337428
23.386847
23.436157
23.485274
23.534098
23.582510
23.630376
23.677546
23.723842
23.769056
23.812939
23.855199
23.895501
23.933456
23.968618
24.000492
24.028548
24.052254
24.071157
24.084799
24.093009
24.095757
19.284550
19.285249
19.287356
19.290942
19.295972
19.302385
19.310128
19.319148
19.329389
19.340788
19.353284
19.366813
19.381314
19.396726
19.412994
19.430064
19.447885
19.466411
19.485598
19.505407
19.525801
19.546744
19.568206
19.590157
19.612570
19.635421
19.658686
19.682345
19.706377
19.730765
19.755493
19.780544
19.805904
19.831561
19.857503
19.883716
19.910192
19.936921
19.963895
19.991103
20.018539
20.046198
20.074071
20.102152
20.130436
20.158920
20.187598
20.216465
20.245518
20.274753
20.304170
20.333763
20.363531
20.393471
20.423582
20.453864
20.484315
20.514931
20.545715
20.576666
20.607784
20.639068
20.670518
20.702135
20.733922
20.765878
20.798004
20.830301
20.862772
20.895420
20.928247
20.961252
20.994439
21.027812
21.061376
21.095132
21.129082
21.163229
21.197581
21.232142
21.266915
21.301903
21.337110
21.372545
21.408212
21.444118
21.480264
21.516658
21.553306
21.590217
21.627397
21.664849
21.702579
21.740597
21.778911
21.817527
21.856451
21.895688
21.935247
21.975136
22.015363
22.055933
22.096850
22.138122
22.179757
22.221761
22.264139
22.306892
22.350025
22.393542
22.437450
22.481747
22.526434
22.571508
22.616968
22.662813
22.709040
22.755639
22.802599
22.849909
22.897557
22.945529
22.993804
23.042355
23.091153
23.140168
23.189367
23.238704
23.288130
23.337585
23.387003
23.436313
23.485429
23.534252
23.582664
23.630530
23.677700
23.723996
23.769209
23.813091
23.855352
23.895653
23.933607
23.968769
24.000643
24.028697
24.052401
24.071303
24.084944
24.093152
24.095897
19.286641
19.287356
19.289500
19.293099
19.298118
19.304509
19.312224
19.321212
19.331418
19.342779
19.355236
19.368724
19.383183
19.398553
19.414779
19.431807
19.449587
19.468074
19.487222
19.506993
19.527350
19.548257
19.569685
19.591603
19.613983
19.636803
19.660039
19.683669
19.707673
19.732035
19.756737
19.781763
19.807099
19.832733
19.858652
19.884844
19.911299
19.938009
19.964963
19.992153
20.019571
20.047212
20.075069
20.103134
20.131402
20.159871
20.188534
20.217387
20.246426
20.275648
20.305052
20.334633
20.364389
20.394317
20.424417
20.454689
20.485128
20.515735
20.546508
20.577450
20.608559
20.639833
20.671274
20.702883
20.734661
20.766610
20.798728
20.831017
20.863481
20.896122
20.928941
20.961939
20.995119
21.028486
21.062044
21.095793
21.129737
21.163879
21.198225
21.232780
21.267547
21.302530
21.337732
21.373162
21.408825
21.444725
21.480867
21.517256
21.553900
21.590807
21.627981
21.665429
21.703156
21.741169
21.779479
21.818092
21.857011
21.896245
21.935800
21.975686
22.015909
22.056476
22.097390
22.138659
22.180290
22.222291
22.264665
22.307416
22.350545
22.394061
22.437965
22.482260
22.526944
22.572015
22.617473
22.663316
22.709540
22.756137
22.803094
22.850402
22.898049
22.946019
22.994292
23.042840
23.091637
23.140651
23.189848
23.239184
23.288608
23.338061
23.387478
23.436787
23.485902
23.534724
23.583134
23.631000
23.678168
23.724463
23.769676
23.813557
23.855817
23.896118
23.934071
23.969233
24.001106
24.029160
24.052863
24.071762
24.085397
24.093607
24.096363
19.290218
19.290941
19.293098
19.296687
19.301678
19.308030
19.315699
19.324635
19.334782
19.346082
19.358473
19.371894
19.386285
19.401586
19.417743
19.434703
19.452416
19.470836
19.489920
19.509629
19.529925
19.550773
19.572144
19.594006
19.616334
19.639102
19.662288
19.685870
19.709829
19.734146
19.758805
19.783790
19.809087
19.834683
19.860565
19.886721
19.913142
19.939818
19.966740
19.993899
20.021288
20.048900
20.076729
20.104767
20.133009
20.161453
20.190092
20.218921
20.247938
20.277138
20.306521
20.336081
20.365817
20.395726
20.425807
20.456061
20.486482
20.517071
20.547829
20.578754
20.609847
20.641106
20.672533
20.704127
20.735892
20.767827
20.799931
20.832208
20.864659
20.897289
20.930096
20.963082
20.996252
21.029608
21.063155
21.096894
21.130827
21.164959
21.199296
21.233842
21.268600
21.303573
21.338767
21.374189
21.409843
21.445735
21.481869
21.518250
21.554887
21.591787
21.628954
21.666394
21.704114
21.742121
21.780425
21.819031
21.857944
21.897171
21.936720
21.976600
22.016818
22.057378
22.098287
22.139550
22.181177
22.223173
22.265542
22.308287
22.351412
22.394922
22.438822
22.483113
22.527792
22.572859
22.618312
22.664152
22.710372
22.756965
22.803918
22.851223
22.898866
22.946833
22.995103
23.043648
23.092441
23.141453
23.190647
23.239981
23.289402
23.338853
23.388268
23.437575
23.486688
23.535508
23.583916
23.631780
23.678947
23.725241
23.770452
23.814332
23.856590
23.896889
23.934842
23.970004
24.001877
24.029931
24.053634
24.072529
24.086163
24.094383
24.097149
19.295252
19.295972
19.298118
19.301677
19.306625
19.312922
19.320528
19.329392
19.339460
19.350675
19.362977
19.376306
19.390602
19.405809
19.421871
19.438737
19.456357
19.474686
19.493682
19.513304
19.533515
19.554283
19.575574
19.597360
19.619614
19.642311
19.665428
19.688944
19.712839
19.737094
19.761694
19.786621
19.811863
19.837406
19.863236
19.889343
19.915716
19.942346
19.969223
19.996339
20.023687
20.051259
20.079048
20.107049
20.135256
20.163664
20.192269
20.221066
20.250050
20.279221
20.308574
20.338105
20.367812
20.397694
20.427750
20.457978
20.488375
20.518940
20.549674
20.580578
20.611649
20.642886
20.674292
20.705867
20.737613
20.769528
20.801614
20.833873
20.866307
20.898920
20.931710
20.964680
20.997834
21.031176
21.064708
21.098432
21.132351
21.166470
21.200794
21.235327
21.270072
21.305032
21.340214
21.375624
21.411267
21.447147
21.483270
21.519640
21.556267
21.593156
21.630313
21.667743
21.705453
21.743452
21.781746
21.820343
21.859247
21.898465
21.938006
21.977878
22.018088
22.058640
22.099540
22.140796
22.182416
22.224405
22.266766
22.309504
22.352622
22.396126
22.440020
22.484304
22.528977
22.574037
22.619486
22.665320
22.711535
22.758122
22.805070
22.852369
22.900008
22.947971
22.996236
23.044776
23.093565
23.142573
23.191764
23.241094
23.290512
23.339959
23.389371
23.438675
23.487786
23.536603
23.585008
23.632869
23.680035
23.726327
23.771536
23.815414
23.857669
23.897968
23.935920
23.971082
24.002955
24.031010
24.054714
24.073609
24.087246
24.095486
24.098264
19.301672
19.302384
19.304508
19.308029
19.312922
19.319152
19.326678
19.335453
19.345422
19.356531
19.368721
19.381934
19.396113
19.411200
19.427143
19.443891
19.461395
19.479609
19.498493
19.518005
19.538111
19.558775
19.579966
19.601655
19.623816
19.646422
19.669452
19.692883
19.716697
19.740874
19.765397
19.790252
19.815423
19.840897
19.866662
19.892706
19.919019
19.945590
19.972410
19.999471
20.026765
20.054286
20.082026
20.109978
20.138139
20.166503
20.195064
20.223819
20.252763
20.281894
20.311209
20.340703
20.370375
20.400223
20.430245
20.460440
20.490805
20.521340
20.552045
20.582919
20.613962
20.645172
20.676552
20.708102
20.739822
20.771713
20.803775
20.836012
20.868424
20.901015
20.933783
20.966733
20.999867
21.033190
21.066703
21.100408
21.134309
21.168410
21.202717
21.237234
21.271962
21.306906
21.342073
21.377468
21.413096
21.448961
21.485069
21.521426
21.558040
21.594916
21.632060
21.669477
21.707174
21.745161
21.783444
21.822028
21.860921
21.900128
21.939658
21.979520
22.019719
22.060261
22.101151
22.142397
22.184008
22.225987
22.268339
22.311067
22.354177
22.397673
22.441559
22.485835
22.530499
22.575552
22.620993
22.666820
22.713028
22.759608
22.806549
22.853842
22.901476
22.949432
22.997691
23.046225
23.095009
23.144013
23.193199
23.242524
23.291937
23.341379
23.390788
23.440089
23.489197
23.538010
23.586411
23.634269
23.681432
23.727722
23.772929
23.816803
23.859057
23.899354
23.937306
23.972468
24.004342
24.032399
24.056107
24.075002
24.088650
24.096922
24.099716
19.309424
19.310127
19.312222
19.315697
19.320526
19.326678
19.334110
19.342779
19.352632
19.363615
19.375673
19.388750
19.402788
19.417735
19.433536
19.450143
19.467508
19.485586
19.504335
19.523717
19.543695
19.564235
19.585306
19.606879
19.628927
19.651425
19.674349
19.697679
19.721394
19.745476
19.769908
19.794675
19.819761
19.845153
19.870838
19.896806
19.923044
19.949544
19.976295
20.003289
20.030520
20.057978
20.085657
20.113552
20.141657
20.169966
20.198475
20.227178
20.256074
20.285157
20.314425
20.343874
20.373503
20.403309
20.433291
20.463445
20.493772
20.524270
20.554939
20.585778
20.616786
20.647964
20.679312
20.710830
20.742520
20.774381
20.806415
20.838624
20.871009
20.903573
20.936316
20.969240
21.002351
21.035649
21.069139
21.102821
21.136700
21.170781
21.205067
21.239562
21.274270
21.309195
21.344343
21.379720
21.415330
21.451177
21.487267
21.523608
21.560205
21.597065
21.634193
21.671594
21.709277
21.747249
21.785518
21.824088
21.862965
21.902159
21.941677
21.981526
22.021712
22.062240
22.103118
22.144353
22.185952
22.227920
22.270261
22.312978
22.356077
22.399563
22.443439
22.487704
22.532359
22.577402
22.622835
22.668654
22.714853
22.761423
22.808356
22.855642
22.903268
22.951218
22.999469
23.047996
23.096774
23.145771
23.194952
23.244272
23.293678
23.343115
23.392519
23.441816
23.490920
23.539728
23.588125
23.635980
23.683140
23.729428
23.774631
23.818502
23.860753
23.901048
23.939000
23.974162
24.006038
24.034098
24.057813
24.076711
24.090379
24.098694
24.101506
19.318455
19.319146
19.321210
19.324633
19.329390
19.335451
19.342778
19.351326
19.361047
19.371888
19.383796
19.396717
19.410597
19.425382
19.441022
19.457468
19.474673
19.492594
19.511189
19.530420
19.550251
19.570649
19.591581
19.613019
19.634936
19.657307
19.680110
19.703321
19.726922
19.750894
19.775219
19.799883
19.824869
19.850165
19.875758
19.901636
19.927788
19.954203
19.980874
20.007791
20.034946
20.062331
20.089940
20.117767
20.145806
20.174051
20.202497
20.231141
20.259979
20.289006
20.318219
20.347616
20.377194
20.406951
20.436884
20.466992
20.497274
20.527728
20.558355
20.589153
20.620120
20.651259
20.682570
20.714052
20.745705
20.777531
20.809531
20.841708
20.874061
20.906593
20.939306
20.972201
21.005283
21.038554
21.072016
21.105671
21.139524
21.173580
21.207842
21.242313
21.276997
21.311899
21.347025
21.382380
21.417968
21.453794
21.489864
21.526185
21.562764
21.599604
21.636712
21.674095
21.711761
21.749716
21.787967
21.826520
21.865381
21.904559
21.944061
21.983895
22.024066
22.064579
22.105443
22.146664
22.188250
22.230204
22.272531
22.315235
22.358322
22.401797
22.445660
22.489913
22.534556
22.579588
22.625011
22.670819
22.717008
22.763568
22.810491
22.857768
22.905386
22.953327
23.001569
23.050088
23.098859
23.147850
23.197024
23.246336
23.295736
23.345167
23.394565
23.443858
23.492956
23.541759
23.590151
23.638002
23.685159
23.731443
23.776642
23.820509
23.862757
23.903051
23.941002
23.976165
24.008042
24.036106
24.059829
24.078734
24.092431
24.100797
24.103626
19.328707
19.329386
19.331415
19.334780
19.339458
19.345420
19.352630
19.361046
19.370621
19.381306
19.393048
19.405798
19.419501
19.434108
19.449568
19.465835
19.482863
19.500608
19.519031
19.538093
19.557759
19.577995
19.598771
19.620057
19.641827
19.664055
19.686719
19.709797
19.733268
19.757115
19.781319
19.805866
19.830739
19.855926
19.881413
19.907189
19.933242
19.959563
19.986141
20.012969
20.040037
20.067339
20.094868
20.122617
20.150580
20.178752
20.207128
20.235704
20.264475
20.293438
20.322589
20.351926
20.381445
20.411145
20.441023
20.471078
20.501308
20.531713
20.562291
20.593040
20.623962
20.655057
20.686324
20.717763
20.749376
20.781162
20.813124
20.845263
20.877579
20.910075
20.942752
20.975615
21.008664
21.041902
21.075332
21.108957
21.142781
21.176808
21.211041
21.245484
21.280140
21.315017
21.350118
21.385447
21.421010
21.456812
21.492859
21.529158
21.565713
21.602531
21.639618
21.676980
21.714626
21.752561
21.790792
21.829325
21.868167
21.907327
21.946812
21.986628
22.026780
22.067277
22.108124
22.149330
22.190900
22.232838
22.275149
22.317838
22.360912
22.404373
22.448222
22.492461
22.537090
22.582111
22.627521
22.673318
22.719494
22.766042
22.812955
22.860222
22.907830
22.955760
23.003992
23.052502
23.101264
23.150247
23.199413
23.248717
23.298109
23.347533
23.396926
23.446213
23.495305
23.544102
23.592488
23.640335
23.687488
23.733768
23.778963
23.822826
23.865071
23.905363
23.943314
23.978475
24.010353
24.038421
24.062154
24.081068
24.094804
24.103218
24.106059
19.340118
19.340785
19.342777
19.346079
19.350673
19.356529
19.363614
19.371887
19.381305
19.391821
19.403386
19.415949
19.429462
19.443875
19.459141
19.475212
19.492046
19.509600
19.527834
19.546711
19.566195
19.586254
19.606858
19.627976
19.649583
19.671653
19.694163
19.717093
19.740420
19.764127
19.788197
19.812613
19.837361
19.862426
19.887795
19.913457
19.939400
19.965614
19.992089
20.018817
20.045789
20.072998
20.100437
20.128098
20.155976
20.184066
20.212364
20.240863
20.269559
20.298450
20.327531
20.356800
20.386254
20.415890
20.445706
20.475701
20.505873
20.536221
20.566743
20.597440
20.628310
20.659355
20.690573
20.721964
20.753530
20.785272
20.817190
20.849286
20.881561
20.914016
20.946655
20.979479
21.012491
21.045693
21.079087
21.112677
21.146468
21.180463
21.214663
21.249074
21.283701
21.318548
21.353620
21.388921
21.424456
21.460230
21.496251
21.532524
21.569054
21.605847
21.642909
21.680248
21.717871
21.755783
21.793991
21.832502
21.871323
21.910463
21.949928
21.989723
22.029856
22.070333
22.111162
22.152350
22.193901
22.235821
22.278115
22.320788
22.363846
22.407291
22.451124
22.495347
22.539962
22.584968
22.630365
22.676148
22.722310
22.768845
22.815746
22.863002
22.910598
22.958517
23.006737
23.055237
23.103990
23.152964
23.202120
23.251415
23.300798
23.350215
23.399602
23.448881
23.497966
23.546756
23.595137
23.642979
23.690128
23.736403
23.781592
23.825451
23.867693
23.907984
23.945932
23.981093
24.012970
24.041040
24.064783
24.083707
24.097489
24.105937
24.108783
19.352627
19.353281
19.355232
19.358470
19.362974
19.368718
19.375671
19.383795
19.393047
19.403385
19.414761
19.427128
19.440439
19.454646
19.469703
19.485566
19.502192
19.519540
19.537570
19.556247
19.575536
19.595404
19.615820
19.636756
19.658185
19.680083
19.702427
19.725193
19.748363
19.771919
19.795841
19.820114
19.844723
19.869654
19.894894
19.920431
19.946253
19.972349
19.998711
20.025329
20.052195
20.079301
20.106639
20.134204
20.161989
20.189989
20.218198
20.246612
20.275226
20.304037
20.333041
20.362235
20.391615
20.421180
20.450928
20.480857
20.510964
20.541249
20.571711
20.602348
20.633161
20.664150
20.695313
20.726652
20.758167
20.789859
20.821728
20.853777
20.886005
20.918416
20.951012
20.983793
21.016763
21.049924
21.083279
21.116832
21.150586
21.184543
21.218707
21.253084
21.287677
21.322491
21.357530
21.392799
21.428303
21.464048
21.500040
21.536284
21.572785
21.609550
21.646585
21.683898
21.721495
21.759382
21.797565
21.836051
21.874849
21.913966
21.953408
21.993180
22.033291
22.073747
22.114556
22.155723
22.197254
22.239154
22.281429
22.324084
22.367124
22.410550
22.454366
22.498572
22.543170
22.588161
22.633542
22.679309
22.725456
22.771977
22.818865
22.866108
22.913691
22.961596
23.009804
23.058293
23.107036
23.155999
23.205145
23.254429
23.303804
23.353213
23.402591
23.451863
23.500940
23.549722
23.598098
23.645934
23.693078
23.739347
23.784531
23.828385
23.870624
23.910912
23.948858
23.984016
24.015891
24.043963
24.067712
24.086647
24.100473
24.108933
24.111776
19.366169
19.366809
19.368720
19.371890
19.376302
19.381931
19.388747
19.396715
19.405796
19.415948
19.427128
19.439290
19.452389
19.466379
19.481218
19.496861
19.513267
19.530397
19.548211
19.566676
19.585755
19.605418
19.625634
19.646375
19.667615
19.689327
19.711491
19.734083
19.757083
19.780474
19.804237
19.828355
19.852815
19.877601
19.902700
19.928100
19.953790
19.979759
20.005998
20.032496
20.059246
20.086239
20.113469
20.140929
20.168612
20.196513
20.224626
20.252946
20.281471
20.310194
20.339114
20.368225
20.397526
20.427014
20.456687
20.486543
20.516579
20.546795
20.577190
20.607763
20.638513
20.669440
20.700543
20.731824
20.763283
20.794920
20.826736
20.858732
20.890911
20.923273
20.955820
20.988555
21.021479
21.054596
21.087908
21.121418
21.155131
21.189047
21.223173
21.257511
21.292067
21.326845
21.361848
21.397082
21.432552
21.468264
21.504223
21.540435
21.576905
21.613639
21.650646
21.687930
21.725498
21.763356
21.801512
21.839972
21.878744
21.917835
21.957251
21.996999
22.037085
22.077519
22.118305
22.159449
22.200958
22.242836
22.285090
22.327725
22.370745
22.414151
22.457947
22.502134
22.546715
22.591689
22.637052
22.682802
22.728932
22.775438
22.822311
22.869539
22.917107
22.964998
23.013193
23.061670
23.110401
23.159352
23.208486
23.257760
23.307125
23.356525
23.405894
23.455157
23.504225
23.553000
23.601370
23.649200
23.696337
23.742600
23.787778
23.831628
23.873864
23.914148
23.952090
23.987244
24.019116
24.047185
24.070938
24.089883
24.103740
24.112189
24.115021
19.380684
19.381310
19.383179
19.386280
19.390598
19.396109
19.402785
19.410594
19.419499
19.429461
19.440438
19.452388
19.465268
19.479034
19.493645
19.509059
19.525236
19.542138
19.559726
19.577967
19.596827
19.616274
19.636278
19.656812
19.677850
19.699366
19.721338
19.743743
19.766563
19.789778
19.813370
19.837323
19.861622
19.886253
19.911201
19.936455
19.962003
19.987835
20.013941
20.040310
20.066935
20.093807
20.120920
20.148266
20.175838
20.203632
20.231642
20.259862
20.288289
20.316918
20.345745
20.374768
20.403982
20.433387
20.462978
20.492754
20.522714
20.552855
20.583178
20.613680
20.644362
20.675222
20.706261
20.737479
20.768877
20.800454
20.832212
20.864151
20.896275
20.928583
20.961078
20.993762
21.026637
21.059705
21.092970
21.126435
21.160102
21.193975
21.228058
21.262355
21.296870
21.331608
21.366572
21.401768
21.437201
21.472877
21.508801
21.544978
21.581413
21.618115
21.655089
21.692341
21.729878
21.767705
21.805831
21.844263
21.883007
21.922070
21.961458
22.001178
22.041239
22.081647
22.122408
22.163527
22.205011
22.246866
22.289098
22.331711
22.374708
22.418092
22.461867
22.506035
22.550596
22.595550
22.640894
22.686625
22.732738
22.779227
22.826084
22.873295
22.920847
22.968723
23.016904
23.065368
23.114085
23.163023
23.212144
23.261407
23.310761
23.360152
23.409511
23.458763
23.507823
23.556590
23.604953
23.652776
23.699906
23.746162
23.791334
23.835180
23.877411
23.917691
23.955627
23.990775
24.022642
24.050707
24.074458
24.093411
24.107276
24.115693
24.118510
19.396110
19.396722
19.398549
19.401581
19.405804
19.411196
19.417731
19.425379
19.434105
19.443874
19.454645
19.466379
19.479034
19.492570
19.506947
19.522125
19.538065
19.554730
19.572084
19.590092
19.608722
19.627944
19.647727
19.668044
19.688869
19.710178
19.731948
19.754158
19.776786
19.799815
19.823226
19.847004
19.871132
19.895597
19.920385
19.945484
19.970881
19.996567
20.022530
20.048762
20.075253
20.101996
20.128983
20.156207
20.183662
20.211341
20.239239
20.267352
20.295674
20.324201
20.352930
20.381857
20.410979
20.440293
20.469797
20.499488
20.529365
20.559426
20.589671
20.620097
20.650704
20.681493
20.712463
20.743613
20.774944
20.806457
20.838152
20.870031
20.902096
20.934346
20.966784
20.999413
21.032234
21.065251
21.098465
21.131880
21.165498
21.199324
21.233361
21.267614
21.302085
21.336779
21.371701
21.406856
21.442250
21.477886
21.513771
21.549910
21.586310
21.622976
21.659915
21.697132
21.734635
21.772429
21.810523
21.848924
21.887636
21.926668
21.966027
22.005719
22.045752
22.086132
22.126865
22.167957
22.209415
22.251245
22.293452
22.336040
22.379013
22.422374
22.466126
22.510272
22.554812
22.599745
22.645068
22.690779
22.736873
22.783344
22.830182
22.877376
22.924910
22.972770
23.020937
23.069385
23.118088
23.167011
23.216119
23.265370
23.314713
23.364092
23.413440
23.462682
23.511732
23.560492
23.608846
23.656662
23.703784
23.750032
23.795199
23.839039
23.881265
23.921539
23.959469
23.994610
24.026471
24.054529
24.078272
24.097230
24.111074
24.119447
24.122244
19.412391
19.412989
19.414774
19.417738
19.421866
19.427139
19.433533
19.441019
19.449566
19.459139
19.469702
19.481217
19.493645
19.506947
19.521085
19.536022
19.551719
19.568141
19.585253
19.603021
19.621414
19.640401
19.659955
19.680046
19.700651
19.721744
19.743303
19.765306
19.787734
19.810568
19.833789
19.857382
19.881331
19.905622
19.930241
19.955175
19.980412
20.005943
20.031756
20.057842
20.084191
20.110797
20.137651
20.164745
20.192075
20.219632
20.247412
20.275410
20.303620
20.332040
20.360664
20.389489
20.418511
20.447729
20.477139
20.506740
20.536529
20.566504
20.596665
20.627010
20.657539
20.688251
20.719145
20.750223
20.781483
20.812927
20.844556
20.876370
20.908370
20.940558
20.972936
21.005506
21.038271
21.071231
21.104390
21.137752
21.171318
21.205094
21.239081
21.273285
21.307708
21.342356
21.377234
21.412345
21.447695
21.483289
21.519133
21.555232
21.591592
21.628220
21.665121
21.702301
21.739767
21.777527
21.815586
21.853953
21.892632
21.931631
21.970957
22.010619
22.050621
22.090971
22.131674
22.172738
22.214168
22.255971
22.298151
22.340712
22.383659
22.426995
22.470724
22.514846
22.559363
22.604272
22.649573
22.695263
22.741337
22.787788
22.834606
22.881780
22.929297
22.977140
23.025290
23.073722
23.122408
23.171317
23.220411
23.269648
23.318979
23.368346
23.417682
23.466913
23.515953
23.564704
23.613050
23.660857
23.707970
23.754212
23.799372
23.843207
23.885426
23.925692
23.963615
23.998749
24.030603
24.058652
24.082382
24.101339
24.115139
24.123462
24.126241
19.429474
19.430058
19.431802
19.434697
19.438731
19.443886
19.450139
19.457464
19.465832
19.475210
19.485564
19.496859
19.509058
19.522125
19.536021
19.550713
19.566163
19.582337
19.599202
19.616724
19.634874
19.653621
19.672937
19.692795
19.713171
19.734041
19.755381
19.777170
19.799390
19.822020
19.845043
19.868443
19.892204
19.916312
19.940754
19.965515
19.990585
20.015953
20.041608
20.067540
20.093740
20.120201
20.146914
20.173873
20.201069
20.228498
20.256153
20.284029
20.312122
20.340427
20.368939
20.397656
20.426574
20.455689
20.485001
20.514505
20.544199
20.574084
20.604156
20.634415
20.664860
20.695490
20.726305
20.757305
20.788491
20.819862
20.851419
20.883163
20.915095
20.947218
20.979532
21.012039
21.044742
21.077642
21.110744
21.144048
21.177560
21.211281
21.245216
21.279367
21.313740
21.348339
21.383169
21.418233
21.453537
21.489086
21.524885
21.560942
21.597260
21.633846
21.670706
21.707847
21.745275
21.782997
21.821019
21.859349
21.897992
21.936956
21.976249
22.015877
22.055847
22.096164
22.136836
22.177869
22.219270
22.261043
22.303194
22.345727
22.388646
22.431956
22.475659
22.519756
22.564247
22.609132
22.654409
22.700077
22.746129
22.792558
22.839355
22.886508
22.934006
22.981831
23.029963
23.078377
23.127046
23.175939
23.225019
23.274242
23.323559
23.372912
23.422236
23.471456
23.520486
23.569227
23.617563
23.665360
23.712465
23.758700
23.803854
23.847681
23.889892
23.930151
23.968066
24.003193
24.035039
24.063078
24.086792
24.105737
24.119484
24.127766
24.130535
19.447309
19.447879
19.449582
19.452410
19.456351
19.461390
19.467504
19.474669
19.482859
19.492043
19.502190
19.513265
19.525235
19.538064
19.551718
19.566163
19.581363
19.597287
19.613900
19.631173
19.649074
19.667575
19.686648
19.706267
19.726408
19.747047
19.768161
19.789730
19.811733
19.834153
19.856971
19.880171
19.903737
19.927655
19.951911
19.976493
20.001388
20.026585
20.052075
20.077846
20.103891
20.130200
20.156765
20.183580
20.210637
20.237931
20.265455
20.293203
20.321172
20.349356
20.377751
20.406354
20.435161
20.464169
20.493375
20.522778
20.552374
20.582162
20.612140
20.642308
20.672664
20.703208
20.733939
20.764858
20.795964
20.827257
20.858738
20.890409
20.922269
20.954322
20.986568
21.019009
21.051646
21.084484
21.117523
21.150768
21.184220
21.217884
21.251762
21.285859
21.320179
21.354726
21.389504
21.424518
21.459773
21.495274
21.531027
21.567038
21.603311
21.639853
21.676670
21.713769
21.751156
21.788838
21.826820
21.865111
21.903716
21.942644
21.981901
22.021493
22.061427
22.101710
22.142349
22.183350
22.224719
22.266460
22.308580
22.351083
22.393974
22.437256
22.480930
22.524999
22.569464
22.614323
22.659576
22.705220
22.751248
22.797653
22.844428
22.891560
22.939038
22.986843
23.034955
23.083350
23.132002
23.180878
23.229942
23.279151
23.328452
23.377791
23.427102
23.476310
23.525330
23.574060
23.622385
23.670173
23.717269
23.763496
23.808642
23.852461
23.894664
23.934914
23.972822
24.007941
24.039778
24.067808
24.091507
24.110431
24.124133
24.132406
24.135184
19.465848
19.466405
19.468068
19.470830
19.474680
19.479604
19.485581
19.492590
19.500605
19.509597
19.519537
19.530395
19.542136
19.554729
19.568140
19.582337
19.597286
19.612957
19.629317
19.646336
19.663985
19.682236
19.701062
19.720438
19.740339
19.760741
19.781624
19.802966
19.824747
19.846950
19.869555
19.892548
19.915913
19.939634
19.963699
19.988094
20.012807
20.037828
20.063145
20.088749
20.114631
20.140782
20.167194
20.193859
20.220771
20.247923
20.275309
20.302924
20.330763
20.358821
20.387093
20.415577
20.444268
20.473162
20.502259
20.531554
20.561047
20.590733
20.620613
20.650685
20.680948
20.711401
20.742044
20.772876
20.803898
20.835109
20.866511
20.898104
20.929890
20.961868
20.994042
21.026412
21.058982
21.091753
21.124727
21.157908
21.191298
21.224901
21.258720
21.292759
21.327023
21.361514
21.396238
21.431199
21.466402
21.501853
21.537557
21.573519
21.609744
21.646240
21.683012
21.720066
21.757410
21.795048
21.832989
21.871239
21.909804
21.948693
21.987911
22.027465
22.067362
22.107609
22.148213
22.189180
22.230514
22.272222
22.314310
22.356781
22.399641
22.442892
22.486537
22.530577
22.575014
22.619846
22.665073
22.710690
22.756693
22.803074
22.849825
22.896935
22.944391
22.992174
23.040266
23.088641
23.137275
23.186134
23.235181
23.284372
23.333658
23.382983
23.432280
23.481476
23.530484
23.579202
23.627516
23.675294
23.722382
23.768600
23.813737
23.857547
23.899742
23.939984
23.977883
24.012994
24.044822
24.072843
24.096532
24.115433
24.129119
24.137432
24.140236
19.485048
19.485592
19.487216
19.489914
19.493676
19.498487
19.504331
19.511185
19.519027
19.527831
19.537568
19.548209
19.559725
19.572082
19.585251
19.599201
19.613900
19.629317
19.645422
19.662186
19.679580
19.697578
19.716154
19.735282
19.754939
19.775101
19.795748
19.816858
19.838412
19.860392
19.882780
19.905560
19.928717
19.952236
19.976103
20.000305
20.024831
20.049669
20.074808
20.100239
20.125952
20.151939
20.178191
20.204700
20.231461
20.258466
20.285709
20.313185
20.340889
20.368814
20.396959
20.425317
20.453887
20.482664
20.511646
20.540829
20.570212
20.599793
20.629570
20.659542
20.689707
20.720065
20.750615
20.781357
20.812291
20.843416
20.874735
20.906246
20.937952
20.969853
21.001951
21.034248
21.066746
21.099446
21.132352
21.165466
21.198791
21.232330
21.266087
21.300065
21.334269
21.368701
21.403368
21.438274
21.473423
21.508821
21.544472
21.580382
21.616558
21.653005
21.689729
21.726737
21.764034
21.801627
21.839524
21.877731
21.916255
21.955101
21.994278
22.033793
22.073651
22.113860
22.154427
22.195356
22.236655
22.278328
22.320381
22.362820
22.405647
22.448866
22.492479
22.536489
22.580896
22.625700
22.670898
22.716488
22.762464
22.808819
22.855546
22.902633
22.950065
22.997825
23.045895
23.094250
23.142864
23.191705
23.240733
23.289907
23.339177
23.388486
23.437770
23.486953
23.535946
23.584652
23.632955
23.680723
23.727802
23.774010
23.819138
23.862939
23.905125
23.945359
23.983250
24.018351
24.050169
24.078181
24.101866
24.120748
24.134459
24.142835
24.145658
19.504870
19.505401
19.506987
19.509622
19.513297
19.517999
19.523712
19.530416
19.538089
19.546707
19.556245
19.566673
19.577965
19.590090
19.603020
19.616723
19.631172
19.646336
19.662185
19.678693
19.695832
19.713576
19.731899
19.750777
19.770186
19.790105
19.810511
19.831386
19.852708
19.874461
19.896627
19.919190
19.942134
19.965445
19.989109
20.013114
20.037446
20.062096
20.087052
20.112304
20.137842
20.163659
20.189746
20.216095
20.242699
20.269552
20.296647
20.323978
20.351541
20.379330
20.407341
20.435570
20.464014
20.492668
20.521530
20.550597
20.579867
20.609337
20.639007
20.668874
20.698937
20.729195
20.759649
20.790296
20.821138
20.852174
20.883405
20.914831
20.946454
20.978274
21.010293
21.042513
21.074935
21.107562
21.140396
21.173440
21.206696
21.240169
21.273860
21.307774
21.341915
21.376287
21.410894
21.445742
21.480833
21.516175
21.551771
21.587628
21.623752
21.660147
21.696821
21.733779
21.771028
21.808574
21.846425
21.884586
21.923065
21.961868
22.001002
22.040475
22.080293
22.120462
22.160989
22.201879
22.243140
22.284777