# vtk DataFile Version 3.0
Example structured points dataset
ASCII

DATASET STRUCTURED_POINTS
DIMENSIONS 151 151 2
ORIGIN 0 0 0
SPACING 0.005000 0.005000 0.005000

POINT_DATA 45602
SCALARS Transmembrane_Potential float 1
LOOKUP_TABLE default
25.121732
25.123352
25.128214
25.136316
25.147478
25.161403
25.177797
25.196351
25.216735
25.238597
25.261568
25.285271
25.309326
25.333360
25.357008
25.379925
25.401782
25.422271
25.441108
25.458030
25.472794
25.485182
25.494996
25.502050
25.506183
25.507253
25.505125
25.499674
25.490800
25.478409
25.462405
25.442705
25.419245
25.391955
25.360759
25.325593
25.286405
25.243135
25.195708
25.144055
25.088122
25.027841
24.963124
24.893881
24.820032
24.741494
24.658153
24.569877
24.476544
24.378033
24.274196
24.164849
24.049800
23.928865
23.801842
23.668484
23.528508
23.381626
23.227546
23.065939
22.896411
22.718527
22.531844
22.335897
22.130152
21.913991
21.686741
21.447703
21.196129
20.931161
20.651821
20.357046
20.045710
19.716593
19.368309
18.999280
18.607783
18.191968
17.749811
17.279009
16.776919
16.240533
15.666374
15.050087
14.385551
13.662996
12.864689
11.954514
10.853346
9.381140
7.113703
3.026815
-5.092282
-19.220495
-33.820185
-45.094655
-53.279536
-59.121886
-63.266319
-66.198560
-68.270618
-69.733925
-70.766985
-71.496171
-72.010821
-72.374039
-72.630382
-72.811302
-72.938993
-73.029121
-73.092738
-73.137646
-73.169348
-73.191730
-73.207532
-73.218690
-73.226568
-73.232132
-73.236062
-73.238837
-73.240797
-73.242182
-73.243160
-73.243851
-73.244339
-73.244684
-73.244928
-73.245100
-73.245222
-73.245308
-73.245369
-73.245412
-73.245443
-73.245464
-73.245479
-73.245490
-73.245498
-73.245503
-73.245507
-73.245510
-73.245512
-73.245513
-73.245514
-73.245515
-73.245515
-73.245515
-73.245516
-73.245516
-73.245516
-73.245516
-73.245516
25.123353
25.124977
25.129840
25.137928
25.149052
25.162926
25.179259
25.197747
25.218060
25.239847
25.262740
25.286361
25.310333
25.334282
25.357846
25.380678
25.402451
25.422858
25.441614
25.458458
25.473146
25.485460
25.495202
25.502187
25.506255
25.507261
25.505071
25.499562
25.490632
25.478187
25.462132
25.442383
25.418876
25.391540
25.360301
25.325093
25.285865
25.242556
25.195090
25.143401
25.087432
25.027117
24.962365
24.893088
24.819208
24.740637
24.657263
24.568954
24.475589
24.377047
24.273177
24.163797
24.048714
23.927745
23.800688
23.667294
23.527280
23.380359
23.226241
23.064593
22.895021
22.717091
22.530361
22.334365
22.128567
21.912350
21.685040
21.445941
21.194300
20.929261
20.649845
20.354987
20.043566
19.714357
19.365972
18.996834
18.605220
18.189281
17.746991
17.276042
16.773789
16.237224
15.662863
15.046344
14.381527
13.658615
12.859817
11.948885
10.846391
9.371590
7.098413
2.997788
-5.150149
-19.302938
-33.887925
-45.144129
-53.314692
-59.146645
-63.283695
-66.210734
-68.279137
-69.739880
-70.771144
-71.499073
-72.012844
-72.375450
-72.631366
-72.811987
-72.939471
-73.029455
-73.092971
-73.137809
-73.169462
-73.191809
-73.207588
-73.218729
-73.226596
-73.232151
-73.236075
-73.238846
-73.240804
-73.242186
-73.243163
-73.243853
-73.244341
-73.244685
-73.244929
-73.245101
-73.245223
-73.245309
-73.245369
-73.245412
-73.245443
-73.245464
-73.245479
-73.245490
-73.245498
-73.245503
-73.245507
-73.245510
-73.245512
-73.245513
-73.245514
-73.245515
-73.245515
-73.245515
-73.245516
-73.245516
-73.245516
-73.245516
-73.245516
25.128216
25.129842
25.134700
25.142729
25.153736
25.167456
25.183613
25.201905
25.222008
25.243571
25.266230
25.289609
25.313333
25.337030
25.360340
25.382920
25.404443
25.424604
25.443120
25.459728
25.474188
25.486281
25.495810
25.502590
25.506460
25.507276
25.504903
25.499220
25.490123
25.477518
25.461307
25.441412
25.417764
25.390292
25.358921
25.323588
25.284241
25.240814
25.193234
25.141435
25.085361
25.024941
24.960086
24.890708
24.816730
24.738063
24.654590
24.566184
24.472724
24.374086
24.270118
24.160636
24.045453
23.924384
23.797223
23.663720
23.523593
23.376558
23.222324
23.060552
22.890848
22.712780
22.525910
22.329767
22.123811
21.907423
21.679935
21.440650
21.188812
20.923559
20.643910
20.348807
20.037127
19.707641
19.358953
18.989485
18.597518
18.181204
17.738508
17.267112
16.764362
16.227251
15.652284
15.035072
14.369427
13.645470
12.845231
11.932042
10.825563
9.342925
7.052384
2.910153
-5.324807
-19.549952
-34.090423
-45.291988
-53.419759
-59.220623
-63.335590
-66.247078
-68.304570
-69.757670
-70.783585
-71.507772
-72.018927
-72.379703
-72.634340
-72.814067
-72.940926
-73.030472
-73.093683
-73.138307
-73.169811
-73.192053
-73.207758
-73.218848
-73.226679
-73.232210
-73.236116
-73.238875
-73.240824
-73.242200
-73.243173
-73.243860
-73.244346
-73.244689
-73.244931
-73.245103
-73.245224
-73.245309
-73.245370
-73.245413
-73.245443
-73.245464
-73.245479
-73.245490
-73.245498
-73.245503
-73.245507
-73.245510
-73.245512
-73.245513
-73.245514
-73.245515
-73.245515
-73.245515
-73.245516
-73.245516
-73.245516
-73.245516
-73.245516
25.136319
25.137931
25.142730
25.150623
25.161425
25.174893
25.190762
25.208737
25.228496
25.249693
25.271967
25.294947
25.318262
25.341544
25.364437
25.386600
25.407711
25.427466
25.445584
25.461804
25.475887
25.487616
25.496791
25.503230
25.506774
25.507276
25.504600
25.498628
25.489255
25.476382
25.459916
25.439777
25.415896
25.388197
25.356608
25.321069
25.281521
25.237898
25.190128
25.138149
25.081899
25.021304
24.956277
24.886733
24.812594
24.733764
24.650127
24.561559
24.467940
24.369144
24.265012
24.155362
24.040011
23.918775
23.791441
23.657755
23.517440
23.370216
23.215787
23.053809
22.883884
22.705588
22.518484
22.322095
22.115874
21.899202
21.671416
21.431821
21.179654
20.914042
20.634006
20.338493
20.026381
19.696432
19.347237
18.977219
18.584663
18.167722
17.724345
17.252199
16.748620
16.210598
15.634623
15.016258
14.349239
13.623548
12.820916
11.903976
10.790856
9.295073
6.975082
2.762005
-5.619752
-19.960848
-34.425741
-45.536646
-53.593592
-59.343024
-63.421462
-66.307224
-68.346665
-69.787120
-70.804184
-71.522179
-72.029003
-72.386750
-72.639270
-72.817516
-72.943339
-73.032160
-73.094864
-73.139134
-73.170389
-73.192459
-73.208042
-73.219047
-73.226819
-73.232308
-73.236184
-73.238923
-73.240857
-73.242224
-73.243190
-73.243872
-73.244354
-73.244694
-73.244935
-73.245105
-73.245226
-73.245311
-73.245371
-73.245413
-73.245443
-73.245465
-73.245480
-73.245490
-73.245498
-73.245503
-73.245507
-73.245510
-73.245512
-73.245513
-73.245514
-73.245515
-73.245515
-73.245515
-73.245516
-73.245516
-73.245516
-73.245516
-73.245516
25.147481
25.149055
25.153738
25.161426
25.171946
25.185075
25.200556
25.218100
25.237391
25.258087
25.279834
25.302266
25.325018
25.347729
25.370047
25.391637
25.412178
25.431373
25.448942
25.464625
25.478187
25.489411
25.498097
25.504066
25.507157
25.507222
25.504127
25.497754
25.487996
25.474753
25.457932
25.437455
25.413248
25.385234
25.353343
25.317516
25.277689
25.233793
25.185760
25.133528
25.077032
25.016193
24.950926
24.881152
24.806786
24.727728
24.643862
24.555069
24.461229
24.362209
24.257845
24.147962
24.032380
23.910909
23.783330
23.649387
23.508811
23.361323
23.206620
23.044349
22.874116
22.695502
22.508070
22.311335
22.104741
21.887671
21.659470
21.419441
21.166808
20.900692
20.620114
20.324029
20.011311
19.680708
19.330799
18.960009
18.566630
18.148808
17.704474
17.231270
16.726529
16.187233
15.609846
14.989868
14.320929
13.592825
12.786857
11.864676
10.742235
9.227780
6.865327
2.549745
-6.041099
-20.534304
-34.890658
-45.875495
-53.834310
-59.512532
-63.540396
-66.390539
-68.404984
-69.827926
-70.832731
-71.542149
-72.042973
-72.396523
-72.646107
-72.822299
-72.946686
-73.034503
-73.096504
-73.140282
-73.171193
-73.193021
-73.208436
-73.219323
-73.227012
-73.232443
-73.236279
-73.238989
-73.240904
-73.242257
-73.243212
-73.243888
-73.244365
-73.244702
-73.244941
-73.245109
-73.245228
-73.245313
-73.245372
-73.245414
-73.245444
-73.245465
-73.245480
-73.245491
-73.245498
-73.245503
-73.245507
-73.245510
-73.245512
-73.245513
-73.245514
-73.245515
-73.245515
-73.245515
-73.245516
-73.245516
-73.245516
-73.245516
-73.245516
25.161406
25.162928
25.167458
25.174895
25.185076
25.197793
25.212797
25.229808
25.248514
25.268585
25.289671
25.311416
25.333461
25.355454
25.377049
25.397915
25.417740
25.436228
25.453102
25.468109
25.481012
25.491595
25.499663
25.505035
25.507551
25.507062
25.503436
25.496554
25.486306
25.472591
25.455320
25.434412
25.409788
25.381373
25.349100
25.312903
25.272718
25.228474
25.180107
25.127552
25.070739
25.009587
24.944017
24.873947
24.799289
24.719938
24.635780
24.546700
24.452576
24.353265
24.248605
24.138424
24.022544
23.900769
23.772873
23.638602
23.497692
23.349864
23.194805
23.032157
22.861529
22.682508
22.494653
22.297468
22.090392
21.872812
21.644078
21.403488
21.150253
20.883484
20.602210
20.305390
19.991890
19.660439
19.309609
18.937825
18.543386
18.124427
17.678851
17.204282
16.698043
16.157111
15.577908
14.955856
14.284456
13.553265
12.743019
11.814089
10.679552
9.140432
6.720894
2.267471
-6.597992
-21.268304
-35.480800
-46.304994
-54.139348
-59.727340
-63.691135
-66.496151
-68.478921
-69.879670
-70.868936
-71.567480
-72.060696
-72.408924
-72.654784
-72.828372
-72.950936
-73.037477
-73.098587
-73.141739
-73.172214
-73.193736
-73.208937
-73.219674
-73.227258
-73.232615
-73.236400
-73.239074
-73.240963
-73.242298
-73.243242
-73.243908
-73.244379
-73.244712
-73.244948
-73.245114
-73.245232
-73.245315
-73.245374
-73.245415
-73.245445
-73.245466
-73.245480
-73.245491
-73.245498
-73.245503
-73.245507
-73.245510
-73.245512
-73.245513
-73.245514
-73.245515
-73.245515
-73.245515
-73.245516
-73.245516
-73.245516
-73.245516
-73.245516
25.177800
25.179262
25.183615
25.190764
25.200557
25.212798
25.227246
25.243631
25.261650
25.280980
25.301284
25.322213
25.343420
25.364558
25.385291
25.405297
25.424266
25.441909
25.457954
25.472150
25.484263
25.494080
25.501406
25.506062
25.507887
25.506732
25.502467
25.494970
25.484131
25.469850
25.452036
25.430605
25.405478
25.376580
25.343843
25.307199
25.266578
25.221915
25.173143
25.120194
25.062994
25.001465
24.935527
24.865097
24.790081
24.710372
24.625861
24.536433
24.441958
24.342291
24.237271
24.126729
24.010485
23.888336
23.760050
23.625381
23.484066
23.335820
23.180321
23.017211
22.846102
22.666585
22.478210
22.280470
22.072802
21.854600
21.625217
21.383936
21.129957
20.862387
20.580264
20.282545
19.968083
19.635587
19.283624
18.910626
18.514891
18.094532
17.647426
17.171177
16.663108
16.120175
15.538750
14.914159
14.239760
13.504805
12.689321
11.752064
10.602407
9.031738
6.537948
1.906291
-7.302877
-22.160035
-36.190783
-46.820784
-54.505531
-59.985204
-63.872109
-66.622967
-68.567720
-69.941824
-70.912434
-71.597919
-72.081996
-72.423830
-72.665216
-72.835674
-72.956047
-73.041056
-73.101092
-73.143494
-73.173443
-73.194597
-73.209540
-73.220096
-73.227554
-73.232822
-73.236545
-73.239176
-73.241035
-73.242348
-73.243277
-73.243933
-73.244397
-73.244724
-73.244956
-73.245120
-73.245236
-73.245318
-73.245376
-73.245417
-73.245446
-73.245466
-73.245481
-73.245491
-73.245498
-73.245504
-73.245507
-73.245510
-73.245512
-73.245513
-73.245514
-73.245515
-73.245515
-73.245515
-73.245516
-73.245516
-73.245516
-73.245516
-73.245516
25.196354
25.197751
25.201908
25.208739
25.218102
25.229809
25.243631
25.259307
25.276545
25.295034
25.314446
25.334445
25.354692
25.374852
25.394599
25.413616
25.431603
25.448275
25.463365
25.476627
25.487829
25.496761
25.503229
25.507055
25.508080
25.506155
25.501147
25.492936
25.481411
25.466471
25.448024
25.425984
25.400270
25.370810
25.337530
25.300361
25.259233
25.214080
25.164834
25.111422
25.053768
24.991798
24.925429
24.854573
24.779134
24.699006
24.614082
24.524242
24.429352
24.329265
24.223822
24.112856
23.996180
23.873584
23.744840
23.609703
23.467908
23.319164
23.163142
22.999486
22.827812
22.647707
22.458711
22.260309
22.051942
21.833009
21.602854
21.360749
21.105883
20.837367
20.554240
20.255455
19.939844
19.606103
19.252797
18.878365
18.481091
18.059063
17.610130
17.131890
16.621655
16.076355
15.492294
14.864697
14.186752
13.447337
12.625591
11.678273
10.509975
8.899364
6.310506
1.453923
-8.171230
-23.205711
-37.014326
-47.417790
-54.929150
-60.283493
-64.081472
-66.769699
-68.670482
-70.013767
-70.962792
-71.633166
-72.106667
-72.441098
-72.677304
-72.844136
-72.961972
-73.045204
-73.103997
-73.145529
-73.174868
-73.195595
-73.210239
-73.220586
-73.227897
-73.233063
-73.236714
-73.239294
-73.241118
-73.242406
-73.243317
-73.243961
-73.244417
-73.244739
-73.244966
-73.245127
-73.245241
-73.245321
-73.245378
-73.245419
-73.245447
-73.245467
-73.245481
-73.245492
-73.245499
-73.245504
-73.245507
-73.245510
-73.245512
-73.245513
-73.245514
-73.245515
-73.245515
-73.245515
-73.245516
-73.245516
-73.245516
-73.245516
-73.245516
25.216739
25.218064
25.222011
25.228499
25.237393
25.248516
25.261651
25.276546
25.292922
25.310480
25.328904
25.347870
25.367052
25.386125
25.404772
25.422687
25.439577
25.455163
25.469185
25.481399
25.491579
25.499517
25.505020
25.507912
25.508035
25.505239
25.499393
25.490375
25.478073
25.462387
25.443221
25.420490
25.394112
25.364011
25.330113
25.292346
25.250641
25.204930
25.155139
25.101197
25.043027
24.980553
24.913688
24.842343
24.766419
24.685813
24.600415
24.510099
24.414729
24.314159
24.208232
24.096776
23.979598
23.856487
23.727216
23.591540
23.449191
23.299867
23.143239
22.978954
22.806629
22.625841
22.436121
22.236953
22.027781
21.808002
21.576950
21.333884
21.077989
20.808380
20.524095
20.224070
19.907119
19.571931
19.217075
18.840983
18.441920
18.017945
17.566890
17.086344
16.573608
16.025565
15.438443
14.807362
14.125308
13.380685
12.551538
11.592125
10.400807
8.739620
6.030271
0.895047
-9.220317
-24.400297
-37.944306
-48.090295
-55.406016
-60.619227
-64.317132
-66.934885
-68.786191
-70.094791
-71.019518
-71.672879
-72.134469
-72.460563
-72.690932
-72.853679
-72.968655
-73.049885
-73.107276
-73.147825
-73.176477
-73.196723
-73.211029
-73.221140
-73.228285
-73.233335
-73.236905
-73.239428
-73.241211
-73.242472
-73.243364
-73.243994
-73.244439
-73.244754
-73.244977
-73.245135
-73.245246
-73.245325
-73.245381
-73.245420
-73.245448
-73.245468
-73.245482
-73.245492
-73.245499
-73.245504
-73.245508
-73.245510
-73.245512
-73.245513
-73.245514
-73.245515
-73.245515
-73.245515
-73.245516
-73.245516
-73.245516
-73.245516
-73.245516
25.238601
25.239851
25.243575
25.249696
25.258090
25.268587
25.280982
25.295035
25.310481
25.327032
25.344385
25.362231
25.380256
25.398146
25.415595
25.432308
25.447999
25.462397
25.475248
25.486314
25.495371
25.502215
25.506655
25.508518
25.507644
25.503886
25.497113
25.487201
25.474038
25.457522
25.437558
25.414059
25.386940
25.356124
25.321536
25.283103
25.240754
25.194415
25.144015
25.089480
25.030732
24.967690
24.900267
24.828370
24.751903
24.670759
24.584823
24.493968
24.398057
24.296945
24.190471
24.078457
23.960708
23.837014
23.707149
23.570862
23.427878
23.277893
23.120580
22.955585
22.782518
22.600948
22.410401
22.210364
22.000281
21.779538
21.547458
21.303293
21.046230
20.775382
20.489776
20.188329
19.869845
19.533012
19.176394
18.798410
18.397298
17.971095
17.517620
17.034455
16.518871
15.967695
15.377077
14.742018
14.055253
13.304590
12.466717
11.492699
10.272713
8.547488
5.687250
0.212744
-10.466704
-25.737057
-38.972713
-48.831976
-55.931513
-60.989123
-64.576780
-67.116912
-68.913722
-70.184112
-71.082069
-71.716680
-72.165141
-72.482042
-72.705975
-72.864214
-72.976035
-73.055054
-73.110897
-73.150363
-73.178255
-73.197969
-73.211903
-73.221752
-73.228715
-73.233636
-73.237116
-73.239576
-73.241315
-73.242545
-73.243415
-73.244030
-73.244465
-73.244772
-73.244990
-73.245144
-73.245252
-73.245329
-73.245384
-73.245423
-73.245450
-73.245469
-73.245483
-73.245493
-73.245499
-73.245504
-73.245508
-73.245510
-73.245512
-73.245513
-73.245514
-73.245515
-73.245515
-73.245515
-73.245516
-73.245516
-73.245516
-73.245516
-73.245516
25.261573
25.262744
25.266234
25.271971
25.279837
25.289674
25.301286
25.314447
25.328905
25.344386
25.360601
25.377254
25.394044
25.410670
25.426838
25.442262
25.456666
25.469788
25.481379
25.491205
25.499050
25.504711
25.508001
25.508747
25.506792
25.501989
25.494205
25.483318
25.469216
25.451795
25.430958
25.406617
25.378686
25.347086
25.311741
25.272575
25.229515
25.182486
25.131415
25.076225
25.016836
24.953165
24.885123
24.812618
24.735548
24.653804
24.567268
24.475813
24.379303
24.277586
24.170499
24.057859
23.939474
23.815132
23.684602
23.547628
23.403930
23.253206
23.095129
22.929337
22.755434
22.572982
22.381510
22.180502
21.969394
21.747563
21.514323
21.268925
21.010554
20.738314
20.451216
20.148164
19.827956
19.489277
19.130680
18.750561
18.347133
17.918418
17.462228
16.976123
16.457330
15.902615
15.308051
14.668498
13.976364
13.218710
12.370526
11.378727
10.122857
8.317233
5.271331
-0.609321
-11.922701
-27.206969
-40.090524
-49.635903
-56.500623
-61.389627
-64.857923
-67.314038
-69.051860
-70.280887
-71.149857
-71.764161
-72.198399
-72.505338
-72.722295
-72.875648
-72.984045
-73.060668
-73.114831
-73.153120
-73.180188
-73.199324
-73.212853
-73.222418
-73.229182
-73.233964
-73.237346
-73.239737
-73.241428
-73.242624
-73.243470
-73.244069
-73.244492
-73.244791
-73.245003
-73.245153
-73.245259
-73.245334
-73.245387
-73.245425
-73.245451
-73.245470
-73.245484
-73.245493
-73.245500
-73.245505
-73.245508
-73.245510
-73.245512
-73.245513
-73.245514
-73.245515
-73.245515
-73.245515
-73.245516
-73.245516
-73.245516
-73.245516
-73.245516
25.285276
25.286366
25.289614
25.294952
25.302270
25.311419
25.322216
25.334447
25.347872
25.362232
25.377255
25.392655
25.408147
25.423443
25.438261
25.452324
25.465367
25.477136
25.487389
25.495900
25.502454
25.506855
25.508916
25.508469
25.505355
25.499431
25.490563
25.478628
25.463514
25.445117
25.423337
25.398086
25.369277
25.336829
25.300661
25.260699
25.216866
25.169086
25.117284
25.061379
25.001290
24.936931
24.868214
24.795041
24.717308
24.634904
24.547710
24.455598
24.358426
24.256041
24.148275
24.034947
23.915861
23.790802
23.659533
23.521794
23.377308
23.225769
23.066844
22.900164
22.725328
22.541900
22.349403
22.147317
21.935066
21.712020
21.477490
21.230725
20.970901
20.697107
20.408342
20.103501
19.781378
19.440649
19.079845
18.697338
18.291325
17.859817
17.400609
16.911226
16.388846
15.830176
15.231202
14.586602
13.888369
13.122635
12.262228
11.248675
9.948172
8.043620
4.774097
-1.585561
-13.592614
-28.798218
-41.287584
-50.494539
-57.107967
-61.816954
-65.157914
-67.524418
-69.199322
-70.384221
-71.222260
-71.814890
-72.233942
-72.530243
-72.739746
-72.887878
-72.992616
-73.066675
-73.119042
-73.156072
-73.182258
-73.200775
-73.213871
-73.223132
-73.229682
-73.234315
-73.237592
-73.239910
-73.241550
-73.242709
-73.243530
-73.244111
-73.244521
-73.244812
-73.245018
-73.245163
-73.245266
-73.245339
-73.245391
-73.245427
-73.245453
-73.245471
-73.245484
-73.245494
-73.245500
-73.245505
-73.245508
-73.245510
-73.245512
-73.245513
-73.245514
-73.245515
-73.245515
-73.245515
-73.245516
-73.245516
-73.245516
-73.245516
-73.245516
25.309332
25.310339
25.313338
25.318266
25.325022
25.333465
25.343423
25.354694
25.367054
25.380257
25.394045
25.408148
25.422293
25.436206
25.449617
25.462262
25.473883
25.484237
25.493088
25.500216
25.505414
25.508486
25.509251
25.507542
25.503203
25.496090
25.486071
25.473022
25.456831
25.437392
25.414608
25.388384
25.358635
25.325276
25.288226
25.247409
25.202745
25.154156
25.101563
25.044886
24.984040
24.918939
24.849488
24.775588
24.697135
24.614015
24.526106
24.433276
24.335380
24.232264
24.123757
24.009678
23.889824
23.763976
23.631894
23.493319
23.347969
23.195534
23.035672
22.868013
22.692153
22.507652
22.314027
22.110748
21.897234
21.672848
21.436900
21.188629
20.927198
20.651683
20.361075
20.054263
19.730032
19.387036
19.023786
18.638634
18.229768
17.795182
17.332640
16.839625
16.313266
15.750214
15.146346
14.496103
13.790961
13.015901
12.140980
11.100942
9.746035
7.722984
4.188835
-2.730507
-15.470269
-30.496102
-42.552640
-51.399814
-57.747868
-62.267140
-65.473991
-67.746130
-69.354769
-70.493184
-71.298632
-71.868417
-72.271459
-72.556539
-72.758179
-72.900799
-73.001675
-73.073027
-73.123496
-73.159195
-73.184448
-73.202312
-73.214948
-73.223888
-73.230213
-73.234687
-73.237853
-73.240093
-73.241678
-73.242800
-73.243593
-73.244155
-73.244553
-73.244834
-73.245033
-73.245174
-73.245274
-73.245344
-73.245394
-73.245430
-73.245455
-73.245473
-73.245485
-73.245494
-73.245501
-73.245505
-73.245508
-73.245511
-73.245512
-73.245513
-73.245514
-73.245515
-73.245515
-73.245515
-73.245516
-73.245516
-73.245516
-73.245516
-73.245516
25.333365
25.334288
25.337035
25.341549
25.347733
25.355458
25.364561
25.374855
25.386127
25.398147
25.410671
25.423444
25.436207
25.448698
25.460660
25.471840
25.481992
25.490880
25.498278
25.503970
25.507755
25.509442
25.508854
25.505824
25.500200
25.491839
25.480610
25.466389
25.449062
25.428524
25.404675
25.377422
25.346675
25.312349
25.274362
25.232633
25.187082
25.137629
25.084192
25.026688
24.965031
24.899130
24.828889
24.754209
24.674980
24.591087
24.502403
24.408795
24.310116
24.206209
24.096900
23.982002
23.861311
23.734604
23.601640
23.462155
23.315862
23.162445
23.001559
22.832832
22.655855
22.470181
22.275318
22.070731
21.855833
21.629985
21.392485
21.142561
20.879362
20.601959
20.309334
20.000366
19.673820
19.328330
18.962388
18.574338
18.162348
17.724384
17.258173
16.761158
16.230425
15.662553
15.053278
14.396746
13.683806
12.897995
12.005892
10.934117
9.514681
7.352535
3.506282
-4.065512
-17.539143
-32.283662
-43.873643
-52.343287
-58.414451
-62.736105
-65.803321
-67.977203
-69.516833
-70.606825
-71.378310
-71.924282
-72.310627
-72.584003
-72.777436
-72.914303
-73.011146
-73.079670
-73.128156
-73.162464
-73.186741
-73.203921
-73.216077
-73.224681
-73.230769
-73.235078
-73.238127
-73.240286
-73.241813
-73.242895
-73.243660
-73.244202
-73.244585
-73.244857
-73.245049
-73.245185
-73.245282
-73.245350
-73.245398
-73.245433
-73.245457
-73.245474
-73.245486
-73.245495
-73.245501
-73.245505
-73.245508
-73.245511
-73.245512
-73.245513
-73.245514
-73.245515
-73.245515
-73.245515
-73.245516
-73.245516
-73.245516
-73.245516
-73.245516
25.357014
25.357852
25.360346
25.364442
25.370051
25.377053
25.385295
25.394602
25.404775
25.415597
25.426840
25.438262
25.449618
25.460660
25.471143
25.480826
25.489473
25.496857
25.502761
25.506974
25.509302
25.509557
25.507567
25.503168
25.496209
25.486550
25.474058
25.458612
25.440098
25.418408
25.393444
25.365108
25.333312
25.297967
25.258990
25.216297
25.169807
25.119437
25.065104
25.006721
24.944199
24.877446
24.806363
24.730847
24.650787
24.566064
24.476549
24.382106
24.282585
24.177825
24.067649
23.951866
23.830271
23.702637
23.568718
23.428246
23.280927
23.126444
22.964450
22.794564
22.616372
22.429419
22.233208
22.027199
21.810799
21.583358
21.344164
21.092432
20.827308
20.547851
20.253030
19.941708
19.612629
19.264413
18.895539
18.504332
18.088932
17.647273
17.177046
16.675659
16.140147
15.566997
14.951767
14.288250
13.566529
12.768337
11.856074
10.747060
9.252393
6.926463
2.706283
-5.626289
-19.775308
-34.142971
-45.238291
-53.316417
-59.101793
-63.219736
-66.143046
-68.215654
-69.684134
-70.724182
-71.460626
-71.982018
-72.351124
-72.612409
-72.797362
-72.928282
-73.020953
-73.086551
-73.132984
-73.165852
-73.189119
-73.205590
-73.217249
-73.225503
-73.231346
-73.235483
-73.238412
-73.240486
-73.241954
-73.242993
-73.243729
-73.244251
-73.244620
-73.244881
-73.245066
-73.245197
-73.245290
-73.245356
-73.245403
-73.245436
-73.245459
-73.245476
-73.245487
-73.245496
-73.245502
-73.245506
-73.245509
-73.245511
-73.245512
-73.245513
-73.245514
-73.245515
-73.245515
-73.245515
-73.245516
-73.245516
-73.245516
-73.245516
-73.245516
25.379931
25.380684
25.382926
25.386606
25.391641
25.397920
25.405301
25.413619
25.422690
25.432310
25.442264
25.452326
25.462263
25.471840
25.480826
25.488990
25.496109
25.501962
25.506341
25.509043
25.509878
25.508665
25.505233
25.499424
25.491089
25.480087
25.466290
25.449575
25.429827
25.406940
25.380812
25.351347
25.318453
25.282042
25.242027
25.198323
25.150845
25.099509
25.044229
24.984917
24.921480
24.853824
24.781847
24.705442
24.624497
24.538889
24.448488
24.353152
24.252729
24.147053
24.035947
23.919216
23.796649
23.668016
23.533067
23.391529
23.243106
23.087475
22.924282
22.753142
22.573633
22.385296
22.187627
21.980080
21.762051
21.532881
21.291846
21.038157
20.770946
20.489262
20.192055
19.878171
19.546340
19.195167
18.823114
18.428476
18.009365
17.563682
17.089089
16.582952
16.042240
15.463322
14.841551
14.170298
13.438689
12.626276
11.690629
10.538328
8.954923
6.430170
1.751550
-7.461689
-22.151655
-36.056544
-46.634603
-54.310837
-59.804056
-63.713971
-66.490341
-68.459513
-69.855300
-70.844303
-71.544916
-72.041164
-72.392627
-72.641533
-72.817801
-72.942626
-73.031021
-73.093617
-73.137944
-73.169335
-73.191564
-73.207306
-73.218454
-73.226350
-73.231941
-73.235901
-73.238705
-73.240692
-73.242099
-73.243095
-73.243801
-73.244301
-73.244655
-73.244906
-73.245084
-73.245210
-73.245299
-73.245362
-73.245407
-73.245439
-73.245461
-73.245477
-73.245488
-73.245496
-73.245502
-73.245506
-73.245509
-73.245511
-73.245512
-73.245513
-73.245514
-73.245515
-73.245515
-73.245515
-73.245516
-73.245516
-73.245516
-73.245516
-73.245516
25.401788
25.402458
25.404449
25.407717
25.412184
25.417745
25.424270
25.431606
25.439580
25.448001
25.456668
25.465369
25.473885
25.481993
25.489474
25.496109
25.501684
25.505990
25.508825
25.509993
25.509309
25.506599
25.501696
25.494444
25.484697
25.472318
25.457178
25.439155
25.418135
25.394010
25.366678
25.336042
25.302008
25.264486
25.223388
25.178627
25.130117
25.077769
25.021496
24.961207
24.896807
24.828197
24.755275
24.677931
24.596049
24.509502
24.418157
24.321870
24.220486
24.113835
24.001736
23.883990
23.760382
23.630678
23.494625
23.351944
23.202335
23.045469
22.880985
22.708493
22.527567
22.337739
22.138500
21.929292
21.709502
21.478463
21.235443
20.979642
20.710177
20.426081
20.126290
19.809635
19.474832
19.120465
18.744969
18.346612
17.923477
17.473440
16.994124
16.482842
15.936478
15.351274
14.722337
14.042516
13.299772
12.471092
11.508365
10.304823
8.612647
5.838443
0.593334
-9.616947
-24.640773
-38.008047
-48.051243
-55.318526
-60.515603
-64.214864
-66.842448
-68.706860
-70.028993
-70.966252
-71.630529
-72.101266
-72.434820
-72.671154
-72.838597
-72.957227
-73.041273
-73.100816
-73.143000
-73.172886
-73.194058
-73.209058
-73.219685
-73.227214
-73.232548
-73.236328
-73.239005
-73.240902
-73.242247
-73.243199
-73.243874
-73.244352
-73.244691
-73.244931
-73.245101
-73.245222
-73.245308
-73.245368
-73.245411
-73.245442
-73.245463
-73.245479
-73.245489
-73.245497
-73.245503
-73.245506
-73.245509
-73.245511
-73.245513
-73.245514
-73.245514
-73.245515
-73.245515
-73.245515
-73.245516
-73.245516
-73.245516
-73.245516
-73.245516
25.422278
25.422864
25.424610
25.427472
25.431378
25.436233
25.441913
25.448279
25.455166
25.462400
25.469790
25.477138
25.484238
25.490881
25.496858
25.501963
25.505991
25.508741
25.510020
25.509640
25.507421
25.503193
25.496797
25.488078
25.476894
25.463110
25.446596
25.427233
25.404907
25.379509
25.350937
25.319092
25.283880
25.245209
25.202988
25.157129
25.107543
25.054140
24.996829
24.935517
24.870107
24.800497
24.726582
24.648247
24.565375
24.477836
24.385493
24.288199
24.185795
24.078107
23.964951
23.846123
23.721405
23.590559
23.453325
23.309422
23.158542
23.000350
22.834483
22.660544
22.478097
22.286668
22.085738
21.874741
21.653059
21.420012
21.174857
20.916779
20.644883
20.358187
20.055613
19.735976
19.397970
19.040155
18.660940
18.258568
17.831097
17.376365
16.891950
16.375100
15.822610
15.230573
14.593796
13.904484
13.149206
12.301872
11.307176
10.040717
8.211277
5.123111
-0.811208
-12.109063
-27.215081
-39.982005
-49.477476
-56.331857
-61.231048
-64.718630
-67.196718
-68.955840
-70.203917
-71.089125
-71.716833
-72.161882
-72.477394
-72.701057
-72.859601
-72.971982
-73.051638
-73.108098
-73.148116
-73.176480
-73.196584
-73.210833
-73.220932
-73.228091
-73.233164
-73.236761
-73.239310
-73.241116
-73.242397
-73.243305
-73.243948
-73.244405
-73.244728
-73.244957
-73.245120
-73.245235
-73.245317
-73.245375
-73.245416
-73.245445
-73.245465
-73.245480
-73.245490
-73.245498
-73.245503
-73.245507
-73.245509
-73.245511
-73.245513
-73.245514
-73.245514
-73.245515
-73.245515
-73.245515
-73.245516
-73.245516
-73.245516
-73.245516
-73.245516
25.441115
25.441621
25.443126
25.445590
25.448947
25.453107
25.457959
25.463370
25.469188
25.475252
25.481381
25.487391
25.493090
25.498279
25.502762
25.506342
25.508825
25.510020
25.509740
25.507805
25.504041
25.498285
25.490380
25.480178
25.467537
25.452325
25.434415
25.413687
25.390027
25.363327
25.333483
25.300397
25.263972
25.224115
25.180735
25.133739
25.083038
25.028540
24.970150
24.907772
24.841307
24.770650
24.695693
24.616320
24.532407
24.443823
24.350428
24.252070
24.148586
24.039800
23.925522
23.805547
23.679649
23.547586
23.409095
23.263887
23.111650
22.952045
22.784700
22.609210
22.425134
22.231989
22.029248
21.816337
21.592625
21.357423
21.109974
20.849450
20.574943
20.285456
19.979895
19.657052
19.315598
18.954071
18.570856
18.164171
17.732038
17.272251
16.782336
16.259476
15.700368
15.100918
14.455563
13.755733
12.986298
12.117216
11.083684
9.738626
7.737658
4.263547
-2.490556
-14.912241
-29.845525
-41.963048
-50.902938
-57.343560
-61.945276
-65.221678
-67.550633
-69.204691
-70.378840
-71.212062
-71.803226
-72.222592
-72.520056
-72.731037
-72.880670
-72.986788
-73.062044
-73.115412
-73.153257
-73.180094
-73.199124
-73.212619
-73.222188
-73.228974
-73.233785
-73.237197
-73.239617
-73.241332
-73.242549
-73.243412
-73.244024
-73.244457
-73.244765
-73.244983
-73.245138
-73.245248
-73.245326
-73.245381
-73.245420
-73.245448
-73.245468
-73.245482
-73.245492
-73.245499
-73.245504
-73.245507
-73.245510
-73.245512
-73.245513
-73.245514
-73.245514
-73.245515
-73.245515
-73.245515
-73.245516
-73.245516
-73.245516
-73.245516
-73.245516