# vtk DataFile Version 3.0
Example structured points dataset
ASCII

DATASET STRUCTURED_POINTS
DIMENSIONS 151 151 2
ORIGIN 0 0 0
SPACING 0.005000 0.005000 0.005000

POINT_DATA 45602
SCALARS Transmembrane_Potential float 1
LOOKUP_TABLE default
-4.271777
-4.331747
-4.517420
-4.846279
-5.389211
-6.411447
-8.758913
-14.435673
-24.820762
-35.902971
-44.868053
-51.623386
-56.644836
-60.386083
-63.194724
-65.323170
-66.952133
-68.210928
-69.192590
-69.964610
-70.576421
-71.064613
-71.456570
-71.773003
-72.029744
-72.239012
-72.410322
-72.551146
-72.667384
-72.763729
-72.843927
-72.910982
-72.967309
-73.014855
-73.055193
-73.089595
-73.119095
-73.144528
-73.166577
-73.185798
-73.202642
-73.217483
-73.230623
-73.242314
-73.252763
-73.262143
-73.270597
-73.278245
-73.285187
-73.291509
-73.297284
-73.302574
-73.307431
-73.311902
-73.316026
-73.319839
-73.323370
-73.326646
-73.329690
-73.332524
-73.335166
-73.337633
-73.339939
-73.342097
-73.344120
-73.346018
-73.347801
-73.349478
-73.351057
-73.352545
-73.353948
-73.355273
-73.356526
-73.357710
-73.358832
-73.359895
-73.360903
-73.361860
-73.362769
-73.363633
-73.364455
-73.365237
-73.365983
-73.366694
-73.367372
-73.368020
-73.368639
-73.369231
-73.369797
-73.370339
-73.370858
-73.371356
-73.371834
-73.372292
-73.372732
-73.373155
-73.373562
-73.373953
-73.374330
-73.374693
-73.375043
-73.375381
-73.375706
-73.376021
-73.376325
-73.376619
-73.376903
-73.377178
-73.377445
-73.377703
-73.377954
-73.378197
-73.378433
-73.378663
-73.378886
-73.379103
-73.379314
-73.379519
-73.379720
-73.379915
-73.380106
-73.380292
-73.380474
-73.380652
-73.380825
-73.380995
-73.381162
-73.381325
-73.381485
-73.381641
-73.381794
-73.381944
-73.382091
-73.382235
-73.382375
-73.382512
-73.382646
-73.382776
-73.382902
-73.383024
-73.383141
-73.383252
-73.383357
-73.383455
-73.383545
-73.383626
-73.383695
-73.383753
-73.383796
-73.383823
-73.383833
-4.331747
-4.048289
-3.945217
-4.024469
-4.357339
-5.271055
-7.838001
-14.357060
-25.591370
-36.909500
-45.847151
-52.504587
-57.415926
-61.053425
-63.770285
-65.819736
-67.381527
-68.583457
-69.516992
-70.248194
-70.825266
-71.283777
-71.650265
-71.944754
-72.182514
-72.375303
-72.532262
-72.660546
-72.765799
-72.852494
-72.924196
-72.983753
-73.033447
-73.075112
-73.110225
-73.139975
-73.165321
-73.187039
-73.205757
-73.221983
-73.236131
-73.248536
-73.259472
-73.269165
-73.277797
-73.285521
-73.292464
-73.298728
-73.304403
-73.309560
-73.314264
-73.318565
-73.322510
-73.326137
-73.329479
-73.332565
-73.335422
-73.338070
-73.340529
-73.342817
-73.344948
-73.346937
-73.348796
-73.350535
-73.352164
-73.353692
-73.355126
-73.356475
-73.357745
-73.358941
-73.360069
-73.361133
-73.362139
-73.363091
-73.363991
-73.364844
-73.365653
-73.366421
-73.367150
-73.367843
-73.368502
-73.369130
-73.369727
-73.370297
-73.370841
-73.371360
-73.371856
-73.372330
-73.372783
-73.373217
-73.373633
-73.374031
-73.374414
-73.374780
-73.375133
-73.375471
-73.375797
-73.376110
-73.376411
-73.376702
-73.376981
-73.377251
-73.377512
-73.377763
-73.378006
-73.378241
-73.378469
-73.378689
-73.378902
-73.379108
-73.379308
-73.379503
-73.379691
-73.379875
-73.380053
-73.380226
-73.380395
-73.380559
-73.380719
-73.380875
-73.381027
-73.381176
-73.381321
-73.381463
-73.381602
-73.381738
-73.381870
-73.382000
-73.382127
-73.382252
-73.382374
-73.382493
-73.382610
-73.382724
-73.382835
-73.382943
-73.383048
-73.383150
-73.383248
-73.383342
-73.383431
-73.383515
-73.383592
-73.383663
-73.383725
-73.383777
-73.383818
-73.383846
-73.383858
-73.383852
-73.383824
-4.517420
-3.945217
-3.641256
-3.614660
-3.975241
-5.170814
-8.506500
-16.278025
-27.997548
-38.940672
-47.429817
-53.733337
-58.382094
-61.825099
-64.396040
-66.334210
-67.809722
-68.943698
-69.822933
-70.510167
-71.051214
-71.479893
-71.821445
-72.094920
-72.314843
-72.492399
-72.636275
-72.753271
-72.848743
-72.926930
-72.991207
-73.044260
-73.088243
-73.124877
-73.155545
-73.181357
-73.203205
-73.221808
-73.237743
-73.251477
-73.263387
-73.273777
-73.282894
-73.290941
-73.298080
-73.304447
-73.310151
-73.315285
-73.319925
-73.324133
-73.327964
-73.331462
-73.334665
-73.337606
-73.340313
-73.342811
-73.345121
-73.347261
-73.349246
-73.351092
-73.352811
-73.354415
-73.355912
-73.357312
-73.358623
-73.359853
-73.361007
-73.362091
-73.363112
-73.364073
-73.364979
-73.365834
-73.366641
-73.367405
-73.368128
-73.368812
-73.369461
-73.370077
-73.370661
-73.371217
-73.371745
-73.372248
-73.372727
-73.373183
-73.373619
-73.374034
-73.374431
-73.374811
-73.375174
-73.375521
-73.375854
-73.376173
-73.376479
-73.376772
-73.377054
-73.377325
-73.377585
-73.377835
-73.378076
-73.378308
-73.378532
-73.378748
-73.378956
-73.379157
-73.379351
-73.379539
-73.379721
-73.379897
-73.380067
-73.380232
-73.380392
-73.380547
-73.380698
-73.380844
-73.380986
-73.381125
-73.381259
-73.381390
-73.381518
-73.381643
-73.381764
-73.381883
-73.381999
-73.382112
-73.382223
-73.382331
-73.382437
-73.382540
-73.382641
-73.382740
-73.382837
-73.382932
-73.383024
-73.383114
-73.383202
-73.383287
-73.383369
-73.383448
-73.383523
-73.383595
-73.383661
-73.383723
-73.383778
-73.383825
-73.383864
-73.383893
-73.383910
-73.383912
-73.383896
-73.383860
-73.383798
-4.846279
-4.024469
-3.614660
-3.631450
-4.259221
-6.147826
-10.875725
-20.196857
-31.793326
-41.824065
-49.527063
-55.268471
-59.526941
-62.697210
-65.074274
-66.871803
-68.243157
-69.298440
-70.117098
-70.756893
-71.260207
-71.658455
-71.975161
-72.228129
-72.430967
-72.594173
-72.725909
-72.832571
-72.919197
-72.989777
-73.047478
-73.094827
-73.133841
-73.166130
-73.192987
-73.215443
-73.234327
-73.250303
-73.263902
-73.275553
-73.285599
-73.294317
-73.301929
-73.308617
-73.314527
-73.319779
-73.324469
-73.328677
-73.332471
-73.335905
-73.339024
-73.341867
-73.344467
-73.346852
-73.349044
-73.351064
-73.352931
-73.354659
-73.356261
-73.357750
-73.359135
-73.360426
-73.361632
-73.362758
-73.363813
-73.364802
-73.365729
-73.366601
-73.367420
-73.368192
-73.368919
-73.369605
-73.370253
-73.370866
-73.371445
-73.371994
-73.372514
-73.373008
-73.373476
-73.373921
-73.374344
-73.374747
-73.375130
-73.375496
-73.375844
-73.376177
-73.376495
-73.376798
-73.377089
-73.377366
-73.377633
-73.377888
-73.378132
-73.378367
-73.378592
-73.378808
-73.379016
-73.379216
-73.379409
-73.379595
-73.379773
-73.379946
-73.380112
-73.380273
-73.380428
-73.380578
-73.380723
-73.380863
-73.380999
-73.381131
-73.381258
-73.381382
-73.381502
-73.381619
-73.381733
-73.381843
-73.381951
-73.382055
-73.382157
-73.382257
-73.382354
-73.382448
-73.382541
-73.382631
-73.382719
-73.382805
-73.382889
-73.382972
-73.383052
-73.383131
-73.383208
-73.383283
-73.383356
-73.383427
-73.383495
-73.383562
-73.383625
-73.383686
-73.383743
-73.383796
-73.383844
-73.383887
-73.383923
-73.383952
-73.383971
-73.383980
-73.383975
-73.383954
-73.383914
-73.383850
-73.383757
-5.389211
-4.357339
-3.975240
-4.259221
-5.535623
-8.753250
-15.527630
-25.924693
-36.545347
-45.273558
-51.976527
-57.022050
-60.804369
-63.646774
-65.794721
-67.429214
-68.682304
-69.650138
-70.402921
-70.992216
-71.456184
-71.823319
-72.115093
-72.347845
-72.534119
-72.683625
-72.803940
-72.901011
-72.979530
-73.043216
-73.095026
-73.137315
-73.171961
-73.200465
-73.224026
-73.243602
-73.259958
-73.273706
-73.285335
-73.295238
-73.303726
-73.311051
-73.317415
-73.322980
-73.327875
-73.332209
-73.336066
-73.339516
-73.342618
-73.345418
-73.347957
-73.350267
-73.352376
-73.354308
-73.356082
-73.357715
-73.359222
-73.360616
-73.361907
-73.363107
-73.364222
-73.365261
-73.366231
-73.367137
-73.367984
-73.368778
-73.369523
-73.370223
-73.370880
-73.371499
-73.372083
-73.372633
-73.373152
-73.373643
-73.374107
-73.374547
-73.374963
-73.375358
-73.375733
-73.376090
-73.376428
-73.376750
-73.377057
-73.377349
-73.377628
-73.377894
-73.378148
-73.378391
-73.378623
-73.378845
-73.379057
-73.379261
-73.379456
-73.379644
-73.379824
-73.379997
-73.380163
-73.380322
-73.380476
-73.380624
-73.380767
-73.380905
-73.381037
-73.381165
-73.381289
-73.381409
-73.381525
-73.381637
-73.381745
-73.381850
-73.381952
-73.382051
-73.382147
-73.382240
-73.382330
-73.382418
-73.382504
-73.382587
-73.382669
-73.382748
-73.382825
-73.382900
-73.382974
-73.383046
-73.383116
-73.383185
-73.383252
-73.383317
-73.383381
-73.383443
-73.383504
-73.383563
-73.383621
-73.383676
-73.383729
-73.383781
-73.383829
-73.383875
-73.383917
-73.383955
-73.383988
-73.384016
-73.384037
-73.384049
-73.384052
-73.384043
-73.384019
-73.383978
-73.383915
-73.383825
-73.383703
-6.411447
-5.271055
-5.170813
-6.147826
-8.753250
-14.087691
-22.731615
-32.735664
-41.718958
-48.967642
-54.590064
-58.885839
-62.153008
-64.639654
-66.539031
-67.997251
-69.123274
-69.997953
-70.681290
-71.217968
-71.641456
-71.977001
-72.243803
-72.456581
-72.626708
-72.763039
-72.872511
-72.960590
-73.031602
-73.088979
-73.135456
-73.173211
-73.203983
-73.229160
-73.249849
-73.266934
-73.281119
-73.292968
-73.302928
-73.311356
-73.318538
-73.324700
-73.330025
-73.334658
-73.338716
-73.342292
-73.345464
-73.348292
-73.350827
-73.353110
-73.355175
-73.357050
-73.358760
-73.360323
-73.361756
-73.363075
-73.364290
-73.365414
-73.366454
-73.367419
-73.368316
-73.369151
-73.369930
-73.370657
-73.371338
-73.371975
-73.372572
-73.373133
-73.373660
-73.374156
-73.374623
-73.375064
-73.375479
-73.375872
-73.376244
-73.376595
-73.376928
-73.377244
-73.377544
-73.377829
-73.378099
-73.378357
-73.378602
-73.378835
-73.379058
-73.379270
-73.379473
-73.379667
-73.379852
-73.380029
-73.380199
-73.380362
-73.380518
-73.380667
-73.380811
-73.380948
-73.381081
-73.381208
-73.381331
-73.381449
-73.381563
-73.381672
-73.381778
-73.381880
-73.381979
-73.382074
-73.382167
-73.382256
-73.382342
-73.382426
-73.382507
-73.382586
-73.382662
-73.382736
-73.382808
-73.382879
-73.382947
-73.383013
-73.383078
-73.383141
-73.383202
-73.383262
-73.383321
-73.383378
-73.383434
-73.383488
-73.383541
-73.383593
-73.383644
-73.383693
-73.383741
-73.383787
-73.383832
-73.383875
-73.383916
-73.383955
-73.383992
-73.384025
-73.384055
-73.384081
-73.384102
-73.384117
-73.384124
-73.384123
-73.384112
-73.384087
-73.384046
-73.383986
-73.383902
-73.383788
-73.383638
-8.758912
-7.838000
-8.506499
-10.875724
-15.527629
-22.731615
-31.348370
-39.673507
-46.820624
-52.618816
-57.193931
-60.754856
-63.509914
-65.638542
-67.285496
-68.563681
-69.559590
-70.338898
-70.951317
-71.434509
-71.817106
-72.120985
-72.362973
-72.556092
-72.710489
-72.834121
-72.933256
-73.012858
-73.076868
-73.128426
-73.170037
-73.203698
-73.231006
-73.253236
-73.271405
-73.286322
-73.298634
-73.308854
-73.317392
-73.324573
-73.330654
-73.335843
-73.340301
-73.344160
-73.347523
-73.350475
-73.353083
-73.355400
-73.357470
-73.359330
-73.361008
-73.362529
-73.363912
-73.365176
-73.366333
-73.367396
-73.368375
-73.369278
-73.370115
-73.370890
-73.371610
-73.372280
-73.372905
-73.373488
-73.374033
-73.374544
-73.375022
-73.375471
-73.375892
-73.376289
-73.376663
-73.377015
-73.377347
-73.377661
-73.377958
-73.378239
-73.378505
-73.378757
-73.378996
-73.379224
-73.379440
-73.379645
-73.379841
-73.380027
-73.380204
-73.380374
-73.380535
-73.380690
-73.380837
-73.380979
-73.381114
-73.381243
-73.381368
-73.381487
-73.381601
-73.381711
-73.381816
-73.381918
-73.382015
-73.382109
-73.382200
-73.382287
-73.382372
-73.382453
-73.382531
-73.382607
-73.382681
-73.382752
-73.382820
-73.382887
-73.382951
-73.383014
-73.383075
-73.383134
-73.383191
-73.383247
-73.383301
-73.383354
-73.383405
-73.383455
-73.383504
-73.383552
-73.383598
-73.383644
-73.383688
-73.383731
-73.383773
-73.383814
-73.383854
-73.383893
-73.383930
-73.383967
-73.384001
-73.384034
-73.384066
-73.384095
-73.384121
-73.384145
-73.384165
-73.384180
-73.384191
-73.384195
-73.384191
-73.384178
-73.384154
-73.384115
-73.384059
-73.383982
-73.383878
-73.383741
-73.383564
-14.435671
-14.357059
-16.278023
-20.196855
-25.924692
-32.735664
-39.673507
-46.037783
-51.504949
-56.017846
-59.654387
-62.543395
-64.820662
-66.609297
-68.013026
-69.115766
-69.983830
-70.668921
-71.211081
-71.641255
-71.983375
-72.256010
-72.473628
-72.647556
-72.786707
-72.898127
-72.987407
-73.059001
-73.116461
-73.162628
-73.199774
-73.229717
-73.253909
-73.273514
-73.289457
-73.302477
-73.313162
-73.321980
-73.329302
-73.335422
-73.340575
-73.344944
-73.348678
-73.351893
-73.354681
-73.357117
-73.359259
-73.361156
-73.362845
-73.364358
-73.365720
-73.366952
-73.368070
-73.369089
-73.370022
-73.370877
-73.371664
-73.372390
-73.373061
-73.373683
-73.374260
-73.374797
-73.375297
-73.375764
-73.376200
-73.376608
-73.376990
-73.377348
-73.377685
-73.378002
-73.378300
-73.378581
-73.378846
-73.379097
-73.379334
-73.379557
-73.379770
-73.379971
-73.380161
-73.380342
-73.380514
-73.380678
-73.380833
-73.380982
-73.381123
-73.381258
-73.381386
-73.381509
-73.381627
-73.381739
-73.381847
-73.381950
-73.382049
-73.382143
-73.382234
-73.382321
-73.382405
-73.382486
-73.382563
-73.382638
-73.382710
-73.382780
-73.382846
-73.382911
-73.382973
-73.383034
-73.383092
-73.383148
-73.383203
-73.383256
-73.383307
-73.383357
-73.383405
-73.383452
-73.383497
-73.383542
-73.383585
-73.383626
-73.383667
-73.383707
-73.383746
-73.383784
-73.383820
-73.383856
-73.383891
-73.383925
-73.383959
-73.383991
-73.384022
-73.384052
-73.384082
-73.384110
-73.384136
-73.384161
-73.384185
-73.384206
-73.384224
-73.384239
-73.384251
-73.384258
-73.384260
-73.384255
-73.384242
-73.384218
-73.384182
-73.384131
-73.384061
-73.383967
-73.383845
-73.383686
-73.383482
-24.820760
-25.591367
-27.997546
-31.793325
-36.545346
-41.718957
-46.820624
-51.504949
-55.594948
-59.044388
-61.886357
-64.192102
-66.044730
-67.524828
-68.703870
-69.642130
-70.388913
-70.983808
-71.458265
-71.837131
-72.139998
-72.382326
-72.576341
-72.731737
-72.856228
-72.955971
-73.035888
-73.099928
-73.151259
-73.192423
-73.225462
-73.252015
-73.273394
-73.290648
-73.304617
-73.315969
-73.325236
-73.332841
-73.339119
-73.344336
-73.348701
-73.352382
-73.355508
-73.358186
-73.360496
-73.362505
-73.364264
-73.365815
-73.367192
-73.368421
-73.369525
-73.370521
-73.371423
-73.372244
-73.372994
-73.373681
-73.374312
-73.374894
-73.375432
-73.375929
-73.376391
-73.376820
-73.377219
-73.377592
-73.377939
-73.378265
-73.378570
-73.378856
-73.379124
-73.379376
-73.379614
-73.379838
-73.380049
-73.380248
-73.380436
-73.380614
-73.380783
-73.380943
-73.381094
-73.381238
-73.381375
-73.381505
-73.381629
-73.381747
-73.381859
-73.381966
-73.382068
-73.382166
-73.382259
-73.382348
-73.382433
-73.382515
-73.382593
-73.382669
-73.382741
-73.382810
-73.382876
-73.382940
-73.383002
-73.383061
-73.383118
-73.383173
-73.383226
-73.383278
-73.383327
-73.383375
-73.383421
-73.383466
-73.383509
-73.383551
-73.383591
-73.383631
-73.383669
-73.383706
-73.383742
-73.383777
-73.383811
-73.383844
-73.383877
-73.383908
-73.383939
-73.383969
-73.383998
-73.384026
-73.384054
-73.384081
-73.384107
-73.384132
-73.384156
-73.384180
-73.384202
-73.384224
-73.384244
-73.384262
-73.384279
-73.384294
-73.384305
-73.384314
-73.384319
-73.384319
-73.384313
-73.384300
-73.384278
-73.384246
-73.384199
-73.384137
-73.384053
-73.383944
-73.383804
-73.383623
-73.383393
-35.902969
-36.909498
-38.940670
-41.824063
-45.273556
-48.967641
-52.618815
-56.017845
-59.044388
-61.652888
-63.849020
-65.667663
-67.156665
-68.366573
-69.344966
-70.133861
-70.768949
-71.279819
-71.690632
-72.020939
-72.286481
-72.499913
-72.671400
-72.809120
-72.919657
-73.008320
-73.079394
-73.136338
-73.181945
-73.218471
-73.247732
-73.271191
-73.290022
-73.305168
-73.317380
-73.327261
-73.335287
-73.341840
-73.347219
-73.351663
-73.355360
-73.358459
-73.361076
-73.363305
-73.365218
-73.366873
-73.368316
-73.369583
-73.370704
-73.371701
-73.372594
-73.373398
-73.374124
-73.374784
-73.375386
-73.375936
-73.376442
-73.376907
-73.377336
-73.377733
-73.378101
-73.378443
-73.378762
-73.379058
-73.379335
-73.379594
-73.379837
-73.380064
-73.380277
-73.380478
-73.380666
-73.380844
-73.381012
-73.381170
-73.381319
-73.381461
-73.381595
-73.381721
-73.381842
-73.381956
-73.382064
-73.382167
-73.382265
-73.382358
-73.382447
-73.382532
-73.382613
-73.382690
-73.382764
-73.382835
-73.382902
-73.382967
-73.383029
-73.383089
-73.383146
-73.383201
-73.383253
-73.383304
-73.383352
-73.383399
-73.383444
-73.383488
-73.383530
-73.383570
-73.383609
-73.383647
-73.383684
-73.383719
-73.383753
-73.383786
-73.383819
-73.383850
-73.383880
-73.383909
-73.383938
-73.383965
-73.383992
-73.384018
-73.384044
-73.384069
-73.384093
-73.384117
-73.384139
-73.384162
-73.384183
-73.384204
-73.384225
-73.384245
-73.384264
-73.384282
-73.384299
-73.384315
-73.384330
-73.384343
-73.384354
-73.384363
-73.384370
-73.384373
-73.384372
-73.384366
-73.384353
-73.384333
-73.384304
-73.384263
-73.384208
-73.384134
-73.384038
-73.383915
-73.383757
-73.383555
-73.383300
-44.868050
-45.847148
-47.429815
-49.527061
-51.976526
-54.590063
-57.193931
-59.654387
-61.886357
-63.849020
-65.534919
-66.958128
-68.144404
-69.124186
-69.928179
-70.584923
-71.119666
-71.554071
-71.906347
-72.191612
-72.422310
-72.608642
-72.758944
-72.880020
-72.977420
-73.055669
-73.118452
-73.168768
-73.209057
-73.241295
-73.267086
-73.287722
-73.304247
-73.317498
-73.328145
-73.336725
-73.343664
-73.349301
-73.353904
-73.357686
-73.360815
-73.363422
-73.365612
-73.367466
-73.369048
-73.370411
-73.371593
-73.372627
-73.373538
-73.374345
-73.375066
-73.375713
-73.376297
-73.376826
-73.377308
-73.377748
-73.378151
-73.378522
-73.378864
-73.379180
-73.379473
-73.379745
-73.379998
-73.380233
-73.380453
-73.380659
-73.380851
-73.381031
-73.381200
-73.381359
-73.381509
-73.381649
-73.381782
-73.381907
-73.382026
-73.382137
-73.382243
-73.382344
-73.382439
-73.382529
-73.382615
-73.382696
-73.382774
-73.382847
-73.382918
-73.382985
-73.383048
-73.383110
-73.383168
-73.383224
-73.383277
-73.383328
-73.383377
-73.383424
-73.383469
-73.383512
-73.383554
-73.383594
-73.383632
-73.383669
-73.383705
-73.383739
-73.383772
-73.383804
-73.383835
-73.383865
-73.383893
-73.383921
-73.383948
-73.383974
-73.384000
-73.384024
-73.384048
-73.384071
-73.384094
-73.384115
-73.384137
-73.384157
-73.384177
-73.384197
-73.384216
-73.384234
-73.384252
-73.384270
-73.384287
-73.384303
-73.384319
-73.384334
-73.384349
-73.384363
-73.384375
-73.384387
-73.384397
-73.384406
-73.384413
-73.384418
-73.384420
-73.384418
-73.384412
-73.384401
-73.384383
-73.384357
-73.384321
-73.384273
-73.384208
-73.384125
-73.384017
-73.383880
-73.383705
-73.383483
-73.383202
-51.623383
-52.504584
-53.733334
-55.268469
-57.022048
-58.885838
-60.754855
-62.543394
-64.192101
-65.667663
-66.958128
-68.066757
-69.006247
-69.794172
-70.449794
-70.992063
-71.438500
-71.804690
-72.104142
-72.348372
-72.547085
-72.708396
-72.839057
-72.944662
-73.029838
-73.098396
-73.153475
-73.197648
-73.233021
-73.261315
-73.283929
-73.301997
-73.316436
-73.327986
-73.337238
-73.344667
-73.350650
-73.355490
-73.359423
-73.362637
-73.365282
-73.367473
-73.369303
-73.370843
-73.372152
-73.373272
-73.374239
-73.375081
-73.375820
-73.376473
-73.377054
-73.377573
-73.378041
-73.378464
-73.378849
-73.379200
-73.379521
-73.379816
-73.380087
-73.380338
-73.380571
-73.380786
-73.380986
-73.381173
-73.381347
-73.381509
-73.381661
-73.381804
-73.381938
-73.382063
-73.382181
-73.382292
-73.382397
-73.382496
-73.382589
-73.382677
-73.382761
-73.382840
-73.382915
-73.382986
-73.383054
-73.383118
-73.383179
-73.383237
-73.383292
-73.383345
-73.383396
-73.383444
-73.383490
-73.383533
-73.383575
-73.383616
-73.383654
-73.383691
-73.383727
-73.383761
-73.383793
-73.383825
-73.383855
-73.383884
-73.383912
-73.383939
-73.383965
-73.383990
-73.384014
-73.384038
-73.384060
-73.384082
-73.384104
-73.384124
-73.384144
-73.384163
-73.384182
-73.384200
-73.384218
-73.384235
-73.384252
-73.384268
-73.384284
-73.384299
-73.384314
-73.384328
-73.384342
-73.384356
-73.384369
-73.384382
-73.384394
-73.384406
-73.384417
-73.384427
-73.384436
-73.384444
-73.384451
-73.384457
-73.384460
-73.384461
-73.384459
-73.384454
-73.384443
-73.384428
-73.384405
-73.384373
-73.384331
-73.384276
-73.384203
-73.384110
-73.383991
-73.383840
-73.383649
-73.383406
-73.383101
-56.644832
-57.415923
-58.382091
-59.526939
-60.804368
-62.153007
-63.509913
-64.820661
-66.044730
-67.156665
-68.144404
-69.006247
-69.747601
-70.378141
-70.909631
-71.354413
-71.724453
-72.030805
-72.283365
-72.490804
-72.660601
-72.799144
-72.911841
-73.003247
-73.077177
-73.136813
-73.184799
-73.223322
-73.254186
-73.278873
-73.298592
-73.314331
-73.326890
-73.336914
-73.344923
-73.351334
-73.356480
-73.360625
-73.363978
-73.366705
-73.368936
-73.370776
-73.372303
-73.373582
-73.374662
-73.375581
-73.376372
-73.377056
-73.377655
-73.378181
-73.378648
-73.379065
-73.379439
-73.379776
-73.380082
-73.380361
-73.380616
-73.380850
-73.381065
-73.381263
-73.381447
-73.381617
-73.381775
-73.381922
-73.382060
-73.382188
-73.382308
-73.382420
-73.382525
-73.382624
-73.382717
-73.382804
-73.382887
-73.382965
-73.383038
-73.383107
-73.383173
-73.383235
-73.383294
-73.383350
-73.383403
-73.383454
-73.383502
-73.383547
-73.383591
-73.383632
-73.383672
-73.383709
-73.383745
-73.383780
-73.383813
-73.383844
-73.383875
-73.383904
-73.383931
-73.383958
-73.383984
-73.384008
-73.384032
-73.384055
-73.384077
-73.384098
-73.384118
-73.384138
-73.384157
-73.384175
-73.384193
-73.384210
-73.384227
-73.384243
-73.384259
-73.384274
-73.384288
-73.384303
-73.384316
-73.384330
-73.384343
-73.384356
-73.384368
-73.384380
-73.384391
-73.384403
-73.384414
-73.384424
-73.384434
-73.384444
-73.384453
-73.384462
-73.384470
-73.384478
-73.384484
-73.384490
-73.384494
-73.384496
-73.384497
-73.384495
-73.384490
-73.384481
-73.384467
-73.384447
-73.384420
-73.384383
-73.384336
-73.384273
-73.384194
-73.384091
-73.383962
-73.383797
-73.383590
-73.383328
-73.382997
-60.386079
-61.053421
-61.825097
-62.697208
-63.646772
-64.639652
-65.638540
-66.609296
-67.524827
-68.366573
-69.124185
-69.794171
-70.378141
-70.881111
-71.310082
-71.672963
-71.977824
-72.232428
-72.443953
-72.618864
-72.762878
-72.880975
-72.977452
-73.055983
-73.119685
-73.171191
-73.212710
-73.246083
-73.272842
-73.294251
-73.311349
-73.324986
-73.335855
-73.344516
-73.351421
-73.356934
-73.361344
-73.364884
-73.367735
-73.370044
-73.371924
-73.373465
-73.374738
-73.375797
-73.376688
-73.377442
-73.378086
-73.378642
-73.379126
-73.379549
-73.379924
-73.380257
-73.380555
-73.380823
-73.381066
-73.381287
-73.381489
-73.381674
-73.381843
-73.382000
-73.382145
-73.382279
-73.382403
-73.382519
-73.382627
-73.382727
-73.382822
-73.382910
-73.382992
-73.383070
-73.383143
-73.383211
-73.383276
-73.383337
-73.383395
-73.383449
-73.383500
-73.383549
-73.383595
-73.383639
-73.383680
-73.383720
-73.383758
-73.383793
-73.383827
-73.383860
-73.383891
-73.383920
-73.383948
-73.383975
-73.384001
-73.384026
-73.384049
-73.384072
-73.384094
-73.384115
-73.384135
-73.384154
-73.384172
-73.384190
-73.384207
-73.384224
-73.384240
-73.384255
-73.384270
-73.384284
-73.384298
-73.384312
-73.384325
-73.384337
-73.384349
-73.384361
-73.384373
-73.384384
-73.384395
-73.384405
-73.384415
-73.384425
-73.384435
-73.384444
-73.384453
-73.384462
-73.384470
-73.384478
-73.384486
-73.384493
-73.384500
-73.384507
-73.384513
-73.384518
-73.384522
-73.384525
-73.384527
-73.384527
-73.384525
-73.384521
-73.384513
-73.384501
-73.384484
-73.384461
-73.384430
-73.384389
-73.384336
-73.384267
-73.384180
-73.384069
-73.383929
-73.383752
-73.383528
-73.383247
-73.382892
-63.194719
-63.770281
-64.396036
-65.074271
-65.794719
-66.539030
-67.285494
-68.013025
-68.703869
-69.344966
-69.928179
-70.449793
-70.909631
-71.310082
-71.655209
-71.950017
-72.199908
-72.410291
-72.586340
-72.732849
-72.854155
-72.954117
-73.036121
-73.103109
-73.157612
-73.201787
-73.237465
-73.266186
-73.289238
-73.307691
-73.322429
-73.334181
-73.343539
-73.350986
-73.356914
-73.361635
-73.365402
-73.368414
-73.370832
-73.372782
-73.374362
-73.375651
-73.376710
-73.377587
-73.378319
-73.378937
-73.379461
-73.379912
-73.380302
-73.380642
-73.380942
-73.381207
-73.381444
-73.381657
-73.381849
-73.382024
-73.382183
-73.382328
-73.382462
-73.382585
-73.382698
-73.382804
-73.382901
-73.382992
-73.383076
-73.383155
-73.383229
-73.383298
-73.383362
-73.383423
-73.383480
-73.383534
-73.383584
-73.383632
-73.383677
-73.383719
-73.383759
-73.383797
-73.383833
-73.383868
-73.383900
-73.383931
-73.383960
-73.383988
-73.384014
-73.384040
-73.384064
-73.384087
-73.384109
-73.384130
-73.384150
-73.384169
-73.384188
-73.384205
-73.384222
-73.384238
-73.384254
-73.384269
-73.384283
-73.384297
-73.384311
-73.384324
-73.384336
-73.384348
-73.384359
-73.384371
-73.384381
-73.384392
-73.384402
-73.384412
-73.384421
-73.384430
-73.384439
-73.384448
-73.384456
-73.384464
-73.384472
-73.384480
-73.384487
-73.384495
-73.384502
-73.384508
-73.384515
-73.384521
-73.384527
-73.384532
-73.384537
-73.384542
-73.384546
-73.384549
-73.384552
-73.384553
-73.384553
-73.384551
-73.384547
-73.384541
-73.384530
-73.384516
-73.384496
-73.384470
-73.384435
-73.384390
-73.384332
-73.384258
-73.384164
-73.384044
-73.383894
-73.383704
-73.383465
-73.383164
-73.382786
-65.323165
-65.819731
-66.334207
-66.871800
-67.429212
-67.997248
-68.563679
-69.115765
-69.642129
-70.133860
-70.584922
-70.992062
-71.354413
-71.672963
-71.950017
-72.188724
-72.392683
-72.565657
-72.711363
-72.833341
-72.934869
-73.018921
-73.088154
-73.144907
-73.191220
-73.228852
-73.259307
-73.283863
-73.303595
-73.319402
-73.332032
-73.342101
-73.350116
-73.356488
-73.361552
-73.365579
-73.368783
-73.371339
-73.373383
-73.375024
-73.376349
-73.377425
-73.378304
-73.379029
-73.379630
-73.380135
-73.380561
-73.380926
-73.381239
-73.381512
-73.381751
-73.381962
-73.382150
-73.382319
-73.382470
-73.382608
-73.382733
-73.382847
-73.382951
-73.383048
-73.383137
-73.383219
-73.383295
-73.383366
-73.383432
-73.383493
-73.383551
-73.383604
-73.383655
-73.383702
-73.383746
-73.383788
-73.383827
-73.383865
-73.383899
-73.383933
-73.383964
-73.383993
-73.384021
-73.384048
-73.384073
-73.384097
-73.384120
-73.384141
-73.384162
-73.384182
-73.384200
-73.384218
-73.384235
-73.384252
-73.384267
-73.384282
-73.384296
-73.384310
-73.384323
-73.384336
-73.384348
-73.384360
-73.384371
-73.384382
-73.384392
-73.384402
-73.384412
-73.384421
-73.384430
-73.384438
-73.384447
-73.384455
-73.384463
-73.384470
-73.384478
-73.384485
-73.384492
-73.384498
-73.384505
-73.384511
-73.384517
-73.384523
-73.384529
-73.384534
-73.384540
-73.384545
-73.384550
-73.384554
-73.384559
-73.384563
-73.384567
-73.384570
-73.384572
-73.384574
-73.384575
-73.384575
-73.384573
-73.384570
-73.384564
-73.384555
-73.384543
-73.384527
-73.384504
-73.384475
-73.384437
-73.384388
-73.384325
-73.384246
-73.384145
-73.384018
-73.383857
-73.383655
-73.383401
-73.383081
-73.382679
-66.952127
-67.381521
-67.809717
-68.243153
-68.682301
-69.123272
-69.559588
-69.983829
-70.388912
-70.768948
-71.119665
-71.438500
-71.724452
-71.977824
-72.199907
-72.392683
-72.558558
-72.700153
-72.820142
-72.921137
-73.005611
-73.075850
-73.133927
-73.181697
-73.220793
-73.252640
-73.278467
-73.299327
-73.316111
-73.329569
-73.340329
-73.348908
-73.355735
-73.361159
-73.365465
-73.368883
-73.371598
-73.373758
-73.375480
-73.376859
-73.377967
-73.378862
-73.379591
-73.380188
-73.380681
-73.381092
-73.381439
-73.381732
-73.381985
-73.382203
-73.382393
-73.382560
-73.382709
-73.382842
-73.382961
-73.383069
-73.383167
-73.383256
-73.383338
-73.383413
-73.383482
-73.383546
-73.383605
-73.383660
-73.383712
-73.383759
-73.383804
-73.383846
-73.383885
-73.383922
-73.383956
-73.383988
-73.384019
-73.384048
-73.384075
-73.384100
-73.384124
-73.384147
-73.384169
-73.384190
-73.384209
-73.384228
-73.384245
-73.384262
-73.384278
-73.384293
-73.384308
-73.384321
-73.384335
-73.384347
-73.384359
-73.384371
-73.384382
-73.384393
-73.384403
-73.384412
-73.384422
-73.384431
-73.384439
-73.384448
-73.384456
-73.384463
-73.384471
-73.384478
-73.384485
-73.384492
-73.384498
-73.384504
-73.384510
-73.384516
-73.384522
-73.384527
-73.384533
-73.384538
-73.384543
-73.384548
-73.384552
-73.384557
-73.384561
-73.384566
-73.384570
-73.384574
-73.384577
-73.384581
-73.384584
-73.384587
-73.384589
-73.384591
-73.384593
-73.384593
-73.384593
-73.384592
-73.384589
-73.384584
-73.384577
-73.384567
-73.384553
-73.384534
-73.384509
-73.384477
-73.384436
-73.384384
-73.384317
-73.384232
-73.384124
-73.383989
-73.383819
-73.383605
-73.383336
-73.382997
-73.382572
-68.210920
-68.583450
-68.943693
-69.298436
-69.650134
-69.997950
-70.338895
-70.668919
-70.983806
-71.279818
-71.554070
-71.804689
-72.030804
-72.232428
-72.410290
-72.565656
-72.700153
-72.815619
-72.913987
-72.997188
-73.067090
-73.125446
-73.173872
-73.213832
-73.246628
-73.273408
-73.295173
-73.312782
-73.326971
-73.338360
-73.347471
-73.354740
-73.360523
-73.365116
-73.368760
-73.371649
-73.373939
-73.375757
-73.377203
-73.378356
-73.379280
-73.380024
-73.380626
-73.381117
-73.381521
-73.381856
-73.382136
-73.382373
-73.382575
-73.382749
-73.382900
-73.383032
-73.383150
-73.383254
-73.383347
-73.383432
-73.383508
-73.383578
-73.383641
-73.383700
-73.383753
-73.383803
-73.383849
-73.383892
-73.383931
-73.383968
-73.384003
-73.384035
-73.384065
-73.384094
-73.384120
-73.384145
-73.384169
-73.384191
-73.384212
-73.384232
-73.384250
-73.384268
-73.384285
-73.384301
-73.384316
-73.384330
-73.384343
-73.384356
-73.384369
-73.384380
-73.384392
-73.384402
-73.384412
-73.384422
-73.384431
-73.384440
-73.384449
-73.384457
-73.384465
-73.384472
-73.384480
-73.384486
-73.384493
-73.384500
-73.384506
-73.384512
-73.384517
-73.384523
-73.384528
-73.384533
-73.384538
-73.384543
-73.384548
-73.384552
-73.384557
-73.384561
-73.384565
-73.384569
-73.384573
-73.384576
-73.384580
-73.384583
-73.384587
-73.384590
-73.384593
-73.384596
-73.384599
-73.384601
-73.384604
-73.384606
-73.384607
-73.384608
-73.384609
-73.384608
-73.384607
-73.384605
-73.384601
-73.384595
-73.384586
-73.384575
-73.384559
-73.384539
-73.384512
-73.384478
-73.384434
-73.384377