# vtk DataFile Version 3.0
Example structured points dataset
ASCII

DATASET STRUCTURED_POINTS
DIMENSIONS 151 151 2
ORIGIN 0 0 0
SPACING 0.005000 0.005000 0.005000

POINT_DATA 45602
SCALARS Transmembrane_Potential float 1
LOOKUP_TABLE default
22.950446
22.951639
22.955270
22.961344
22.969739
22.980359
22.993146
23.008046
23.024998
23.043926
23.064746
23.087364
23.111682
23.137595
23.164998
23.193784
23.223850
23.255093
23.287413
23.320716
23.354912
23.389914
23.425643
23.462021
23.498980
23.536452
23.574377
23.612698
23.651363
23.690324
23.729536
23.768958
23.808553
23.848288
23.888130
23.928051
23.968025
24.008027
24.048036
24.088034
24.128002
24.167923
24.207782
24.247566
24.287263
24.326863
24.366355
24.405729
24.444976
24.484090
24.523064
24.561891
24.600566
24.639081
24.677432
24.715615
24.753626
24.791460
24.829114
24.866581
24.903859
24.940945
24.977838
25.014533
25.051025
25.087312
25.123391
25.159260
25.194918
25.230362
25.265588
25.300593
25.335375
25.369935
25.404273
25.438386
25.472274
25.505934
25.539368
25.572577
25.605565
25.638335
25.670888
25.703227
25.735358
25.767287
25.799025
25.830581
25.861966
25.893191
25.924269
25.955217
25.986057
26.016810
26.047501
26.078154
26.108799
26.139466
26.170195
26.201026
26.232002
26.263170
26.294579
26.326280
26.358334
26.390806
26.423764
26.457277
26.491418
26.526263
26.561895
26.598401
26.635872
26.674400
26.714078
26.755000
26.797263
26.840968
26.886216
26.933109
26.981742
27.032209
27.084600
27.139002
27.195499
27.254166
27.315063
27.378237
27.443717
27.511514
27.581619
27.653990
27.728549
27.805165
27.883652
27.963758
28.045152
28.127409
28.209985
28.292203
28.373238
28.452118
28.527729
28.598830
28.664085
28.722107
28.771538
28.811098
28.839960
28.857656
28.863634
22.951643
22.950794
22.952951
22.957895
22.965397
22.975304
22.987523
23.001976
23.018580
23.037247
23.057879
23.080372
23.104618
23.130504
23.157918
23.186749
23.216886
23.248223
23.280656
23.314088
23.348424
23.383576
23.419463
23.456005
23.493131
23.530775
23.568873
23.607368
23.646207
23.685341
23.724725
23.764318
23.804082
23.843983
23.883989
23.924071
23.964204
24.004361
24.044523
24.084670
24.124784
24.164848
24.204847
24.244767
24.284598
24.324329
24.363949
24.403447
24.442815
24.482048
24.521137
24.560078
24.598863
24.637486
24.675941
24.714225
24.752335
24.790267
24.828013
24.865571
24.902937
24.940109
24.977083
25.013858
25.050427
25.086787
25.122936
25.158872
25.194593
25.230097
25.265380
25.300438
25.335269
25.369874
25.404252
25.438403
25.472323
25.506011
25.539467
25.572694
25.605694
25.638471
25.671025
25.703360
25.735479
25.767391
25.799104
25.830630
25.861977
25.893156
25.924181
25.955068
25.985839
26.016516
26.047122
26.077683
26.108226
26.138784
26.169395
26.200101
26.230944
26.261972
26.293233
26.324780
26.356673
26.388979
26.421766
26.455104
26.489068
26.523734
26.559185
26.595511
26.632805
26.671161
26.710672
26.751434
26.793547
26.837113
26.882237
26.929023
26.977569
27.027971
27.080322
27.134713
27.191230
27.249954
27.310947
27.374261
27.439927
27.507962
27.578360
27.651085
27.726062
27.803165
27.882210
27.962949
28.045053
28.128095
28.211530
28.294672
28.376678
28.456550
28.533132
28.605121
28.671098
28.729568
28.779058
28.818121
28.845844
28.861566
28.864189
22.955285
22.952962
22.953856
22.957734
22.964365
22.973581
22.985262
22.999304
23.015602
23.034050
23.054537
23.076945
23.101158
23.127054
23.154515
23.183421
23.213658
23.245114
23.277683
23.311263
23.345759
23.381079
23.417139
23.453860
23.491168
23.528995
23.567278
23.605958
23.644982
23.684301
23.723869
23.763643
23.803586
23.843664
23.883845
23.924100
23.964402
24.004726
24.045053
24.085361
24.125634
24.165854
24.206005
24.246076
24.286055
24.325930
24.365691
24.405329
24.444834
24.484200
24.523421
24.562491
24.601402
24.640148
24.678725
24.717128
24.755355
24.793400
24.831258
24.868924
24.906396
24.943672
24.980748
25.017620
25.054284
25.090737
25.126975
25.162998
25.198803
25.234387
25.269746
25.304877
25.339778
25.374448
25.408889
25.443096
25.477069
25.510805
25.544305
25.577571
25.610605
25.643410
25.675986
25.708337
25.740466
25.772382
25.804093
25.835609
25.866939
25.898094
25.929086
25.959933
25.990656
26.021277
26.051819
26.082307
26.112768
26.143236
26.173749
26.204347
26.235076
26.265980
26.297108
26.328516
26.360263
26.392416
26.425044
26.458218
26.492012
26.526505
26.561781
26.597931
26.635049
26.673229
26.712566
26.753159
26.795108
26.838518
26.883497
26.930149
26.978575
27.028871
27.081135
27.135460
27.191935
27.250641
27.311646
27.375000
27.440740
27.508884
27.579430
27.652345
27.727554
27.804934
27.884303
27.965415
28.047943
28.131460
28.215419
28.299128
28.381735
28.462222
28.539396
28.611902
28.678243
28.736834
28.786121
28.824553
28.851220
28.865338
28.865768
22.961378
22.957925
22.957753
22.960683
22.966525
22.975114
22.986312
22.999992
23.016030
23.034302
23.054682
23.077043
23.101254
23.127188
23.154719
23.183722
23.214076
23.245668
23.278386
23.312126
23.346790
23.382286
23.418527
23.455433
23.492928
23.530945
23.569418
23.608288
23.647502
23.687011
23.726766
23.766727
23.806855
23.847117
23.887479
23.927912
23.968390
24.008889
24.049387
24.089865
24.130305
24.170688
24.211002
24.251232
24.291368
24.331398
24.371312
24.411099
24.450752
24.490264
24.529630
24.568840
24.607889
24.646772
24.685483
24.724020
24.762377
24.800549
24.838532
24.876322
24.913915
24.951310
24.988502
25.025488
25.062263
25.098823
25.135168
25.171294
25.207199
25.242879
25.278330
25.313551
25.348539
25.383293
25.417812
25.452094
25.486136
25.519938
25.553499
25.586822
25.619907
25.652757
25.685373
25.717757
25.749914
25.781852
25.813578
25.845102
25.876432
25.907578
25.938555
25.969381
26.000073
26.030655
26.061149
26.091579
26.121973
26.152367
26.182796
26.213303
26.243930
26.274722
26.305730
26.337010
26.368622
26.400632
26.433110
26.466125
26.499755
26.534078
26.569181
26.605155
26.642094
26.680092
26.719248
26.759659
26.801430
26.844668
26.889480
26.935971
26.984243
27.034396
27.086529
27.140737
27.197113
27.255735
27.316673
27.379981
27.445696
27.513840
27.584411
27.657377
27.732661
27.810143
27.889642
27.970913
28.053631
28.137367
28.221571
28.305545
28.388432
28.469196
28.546618
28.619298
28.685680
28.744119
28.793009
28.830757
28.856511
28.869341
28.868199
22.969800
22.965454
22.964411
22.966552
22.971726
22.979781
22.990569
23.003947
23.019774
23.037912
23.058221
23.080561
23.104795
23.130786
23.158402
23.187512
23.217994
23.249726
23.282597
23.316501
23.351335
23.387007
23.423429
23.460519
23.498201
23.536405
23.575067
23.614127
23.653531
23.693227
23.733171
23.773318
23.813632
23.854077
23.894621
23.935235
23.975891
24.016567
24.057240
24.097890
24.138500
24.179052
24.219532
24.259928
24.300227
24.340418
24.380489
24.420433
24.460242
24.499908
24.539425
24.578784
24.617981
24.657009
24.695865
24.734544
24.773041
24.811350
24.849469
24.887393
24.925119
24.962644
24.999963
25.037073
25.073970
25.110651
25.147114
25.183355
25.219372
25.255161
25.290717
25.326041
25.361128
25.395979
25.430589
25.464958
25.499083
25.532964
25.566600
25.599993
25.633143
25.666051
25.698719
25.731150
25.763348
25.795321
25.827076
25.858620
25.889962
25.921113
25.952088
25.982904
26.013579
26.044133
26.074589
26.104973
26.135313
26.165643
26.196000
26.226424
26.256957
26.287646
26.318541
26.349700
26.381183
26.413056
26.445386
26.478245
26.511710
26.545863
26.580792
26.616586
26.653339
26.691147
26.730109
26.770325
26.811902
26.854947
26.899567
26.945868
26.993953
27.043925
27.095884
27.149928
27.206148
27.264623
27.325424
27.388605
27.454207
27.522253
27.592740
27.665633
27.740858
27.818291
27.897755
27.979007
28.061718
28.145458
28.229672
28.313660
28.396558
28.477317
28.554700
28.627273
28.693443
28.751522
28.799882
28.836940
28.861888
28.873611
28.871264
22.980453
22.975395
22.973662
22.975176
22.979816
22.987441
22.997899
23.011037
23.026704
23.044746
23.065013
23.087356
23.111629
23.137689
23.165397
23.194619
23.225228
23.257101
23.290123
23.324185
23.359185
23.395027
23.431624
23.468891
23.506754
23.545140
23.583984
23.623228
23.662814
23.702694
23.742820
23.783149
23.823644
23.864269
23.904992
23.945783
23.986615
24.027466
24.068312
24.109134
24.149914
24.190635
24.231283
24.271845
24.312307
24.352660
24.392893
24.432997
24.472965
24.512788
24.552459
24.591971
24.631320
24.670500
24.709505
24.748331
24.786973
24.825427
24.863688
24.901753
24.939618
24.977280
25.014733
25.051975
25.089002
25.125812
25.162401
25.198765
25.234902
25.270807
25.306478
25.341913
25.377109
25.412064
25.446774
25.481239
25.515455
25.549424
25.583144
25.616616
25.649839
25.682814
25.715543
25.748030
25.780280
25.812297
25.844087
25.875660
25.907022
25.938188
25.969169
25.999984
26.030648
26.061181
26.091607
26.121951
26.152243
26.182516
26.212806
26.243152
26.273595
26.304185
26.334972
26.366013
26.397368
26.429103
26.461284
26.493985
26.527283
26.561263
26.596010
26.631616
26.668172
26.705777
26.744530
26.784536
26.825899
26.868728
26.913130
26.959209
27.007073
27.056826
27.108569
27.162401
27.218411
27.276678
27.337274
27.400256
27.465665
27.533524
27.603828
27.676540
27.751585
27.828841
27.908131
27.989210
28.071749
28.155312
28.239342
28.323137
28.405828
28.486359
28.563477
28.635729
28.701498
28.759073
28.806809
28.843195
28.867357
28.878072
28.874766
22.993282
22.987656
22.985385
22.986416
22.990647
22.997942
23.008150
23.021110
23.036662
23.054643
23.074894
23.097257
23.121580
23.147715
23.175517
23.204850
23.235582
23.267590
23.300754
23.334966
23.370122
23.406125
23.442886
23.480320
23.518352
23.556909
23.595925
23.635342
23.675101
23.715154
23.755454
23.795957
23.836624
23.877421
23.918315
23.959277
24.000279
24.041299
24.082313
24.123301
24.164247
24.205133
24.245945
24.286669
24.327294
24.367807
24.408200
24.448463
24.488588
24.528567
24.568392
24.608059
24.647561
24.686893
24.726049
24.765023
24.803813
24.842412
24.880819
24.919027
24.957034
24.994835
25.032426
25.069804
25.106966
25.143908
25.180626
25.217117
25.253377
25.289404
25.325194
25.360745
25.396054
25.431117
25.465932
25.500497
25.534812
25.568874
25.602682
25.636237
25.669537
25.702584
25.735380
25.767929
25.800233
25.832298
25.864129
25.895734
25.927122
25.958306
25.989299
26.020114
26.050770
26.081286
26.111685
26.141994
26.172241
26.202458
26.232682
26.262949
26.293304
26.323795
26.354473
26.385395
26.416620
26.448211
26.480239
26.512776
26.545903
26.579701
26.614257
26.649661
26.686008
26.723394
26.761923
26.801699
26.842827
26.885414
26.929567
26.975395
27.023004
27.072500
27.123986
27.177558
27.233304
27.291307
27.351637
27.414352
27.479495
27.547085
27.617116
27.689550
27.764312
27.841280
27.920277
28.001055
28.083281
28.166517
28.250206
28.333642
28.415955
28.496085
28.572768
28.644541
28.709775
28.766750
28.813802
28.849534
28.872860
28.882652
28.878572
23.008231
23.002158
22.999477
23.000147
23.004075
23.011132
23.021162
23.034001
23.049481
23.067431
23.087687
23.110084
23.134464
23.160676
23.188570
23.218009
23.248857
23.280989
23.314285
23.348635
23.383934
23.420083
23.456994
23.494581
23.532767
23.571481
23.610655
23.650230
23.690150
23.730364
23.770823
23.811487
23.852315
23.893273
23.934327
23.975449
24.016612
24.057790
24.098963
24.140110
24.181214
24.222258
24.263226
24.304107
24.344887
24.385555
24.426103
24.466519
24.506797
24.546927
24.586905
24.626723
24.666375
24.705855
24.745158
24.784280
24.823216
24.861960
24.900510
24.938861
24.977008
25.014948
25.052676
25.090191
25.127487
25.164561
25.201408
25.238026
25.274411
25.310561
25.346471
25.382138
25.417559
25.452732
25.487653
25.522321
25.556734
25.590890
25.624787
25.658425
25.691804
25.724925
25.757790
25.790401
25.822760
25.854873
25.886745
25.918384
25.949800
25.981003
26.012006
26.042822
26.073470
26.103968
26.134341
26.164614
26.194814
26.224973
26.255127
26.285314
26.315579
26.345968
26.376533
26.407330
26.438417
26.469859
26.501726
26.534093
26.567038
26.600643
26.634994
26.670183
26.706304
26.743457
26.781743
26.821267
26.862135
26.904453
26.948330
26.993875
27.041196
27.090399
27.141585
27.194850
27.250284
27.307969
27.367977
27.430364
27.495173
27.562420
27.632099
27.704171
27.778561
27.855146
27.933748
28.014115
28.095911
28.178700
28.261920
28.344870
28.426676
28.506273
28.582396
28.653576
28.718184
28.774501
28.820841
28.855907
28.878360
28.887336
28.882633
23.025238
23.018820
23.015832
23.016243
23.019962
23.026857
23.036773
23.049541
23.064985
23.082932
23.103210
23.125651
23.150093
23.176380
23.204363
23.233899
23.264853
23.297098
23.330513
23.364986
23.400411
23.436691
23.473735
23.511458
23.549782
23.588635
23.627951
23.667669
23.707732
23.748089
23.788694
23.829503
23.870477
23.911581
23.952782
23.994050
24.035359
24.076685
24.118004
24.159299
24.200549
24.241739
24.282854
24.323881
24.364807
24.405622
24.446314
24.486876
24.527299
24.567575
24.607697
24.647659
24.687454
24.727077
24.766522
24.805786
24.844862
24.883747
24.922435
24.960923
24.999207
25.037282
25.075145
25.112792
25.150218
25.187419
25.224393
25.261136
25.297644
25.333913
25.369940
25.405720
25.441252
25.476532
25.511557
25.546326
25.580835
25.615082
25.649065
25.682785
25.716242
25.749435
25.782365
25.815035
25.847447
25.879606
25.911517
25.943189
25.974629
26.005848
26.036857
26.067671
26.098308
26.128786
26.159129
26.189361
26.219509
26.249606
26.279686
26.309788
26.339957
26.370238
26.400682
26.431345
26.462286
26.493571
26.525269
26.557454
26.590205
26.623603
26.657735
26.692693
26.728572
26.765473
26.803496
26.842746
26.883328
26.925351
26.968924
27.014157
27.061157
27.110029
27.160875
27.213790
27.268867
27.326186
27.385819
27.447822
27.512234
27.579072
27.648330
27.719967
27.793909
27.870031
27.948150
28.028014
28.109287
28.191531
28.274188
28.356552
28.437752
28.516721
28.592193
28.662703
28.726625
28.782251
28.827886
28.862240
28.883867
28.892181
28.886987
23.044229
23.037550
23.034345
23.034581
23.038166
23.044967
23.054823
23.067560
23.083001
23.100966
23.121281
23.143774
23.168280
23.194641
23.222706
23.252331
23.283379
23.315723
23.349241
23.383821
23.419356
23.455749
23.492908
23.530748
23.569191
23.608165
23.647603
23.687444
23.727632
23.768115
23.808846
23.849783
23.890885
23.932118
23.973448
24.014847
24.056287
24.097744
24.139195
24.180621
24.222004
24.263327
24.304576
24.345736
24.386796
24.427744
24.468571
24.509267
24.549824
24.590235
24.630491
24.670587
24.710516
24.750272
24.789852
24.829248
24.868457
24.907473
24.946292
24.984911
25.023324
25.061527
25.099517
25.137289
25.174839
25.212163
25.249258
25.286119
25.322743
25.359125
25.395263
25.431152
25.466789
25.502171
25.537296
25.572158
25.606757
25.641090
25.675156
25.708954
25.742482
25.775741
25.808732
25.841455
25.873915
25.906116
25.938062
25.969760
26.001219
26.032447
26.063457
26.094264
26.124885
26.155337
26.185643
26.215827
26.245916
26.275943
26.305943
26.335953
26.366017
26.396181
26.426495
26.457014
26.487800
26.518917
26.550434
26.582425
26.614967
26.648142
26.682040
26.716752
26.752373
26.789002
26.826740
26.865692
26.905965
26.947668
26.990910
27.035801
27.082446
27.130952
27.181420
27.233948
27.288625
27.345534
27.404744
27.466310
27.530271
27.596644
27.665421
27.736563
27.809991
27.885580
27.963144
28.042431
28.123106
28.204732
28.286750
28.368454
28.448974
28.527246
28.602007
28.671798
28.735001
28.789920
28.834884
28.868495
28.889444
28.897308
28.891731
23.065119
23.058253
23.054904
23.055035
23.058550
23.065309
23.075150
23.087893
23.103356
23.121359
23.141722
23.164273
23.188844
23.215275
23.243415
23.273119
23.304250
23.336678
23.370284
23.404954
23.440581
23.477067
23.514322
23.552259
23.590801
23.629874
23.669414
23.709358
23.749650
23.790238
23.831076
23.872120
23.913331
23.954674
23.996115
24.037626
24.079178
24.120748
24.162313
24.203855
24.245354
24.286793
24.328159
24.369437
24.410616
24.451683
24.492630
24.533447
24.574125
24.614656
24.655034
24.695251
24.735302
24.775181
24.814882
24.854400
24.893730
24.932867
24.971807
25.010546
25.049078
25.087400
25.125507
25.163395
25.201060
25.238498
25.275704
25.312675
25.349406
25.385894
25.422134
25.458123
25.493858
25.529334
25.564549
25.599498
25.634180
25.668592
25.702732
25.736599
25.770191
25.803509
25.836552
25.869323
25.901824
25.934058
25.966030
25.997747
26.029216
26.060446
26.091451
26.122243
26.152839
26.183256
26.213516
26.243644
26.273667
26.303616
26.333525
26.363434
26.393382
26.423417
26.453590
26.483957
26.514576
26.545513
26.576835
26.608616
26.640935
26.673874
26.707523
26.741971
26.777314
26.813651
26.851083
26.889716
26.929657
26.971015
27.013899
27.058418
27.104678
27.152786
27.202843
27.254946
27.309187
27.365644
27.424387
27.485471
27.548933
27.614792
27.683039
27.753632
27.826490
27.901486
27.978438
28.057091
28.137112
28.218062
28.299383
28.380373
28.460161
28.537690
28.611705
28.680753
28.743222
28.797429
28.841752
28.874659
28.895155
28.902749
28.896829
23.087813
23.080824
23.077392
23.077476
23.080972
23.087736
23.097598
23.110375
23.125884
23.143939
23.164360
23.186972
23.211608
23.238106
23.266314
23.296087
23.327287
23.359787
23.393464
23.428206
23.463906
23.500467
23.537797
23.575810
23.614430
23.653582
23.693202
23.733227
23.773601
23.814273
23.855196
23.896326
23.937625
23.979056
24.020586
24.062188
24.103832
24.145496
24.187157
24.228794
24.270390
24.311928
24.353393
24.394771
24.436051
24.477222
24.518272
24.559192
24.599975
24.640612
24.681096
24.721420
24.761579
24.801565
24.841374
24.881000
24.920438
24.959683
24.998731
25.037577
25.076216
25.114644
25.152856
25.190849
25.228617
25.266157
25.303463
25.340533
25.377360
25.413943
25.450276
25.486355
25.522176
25.557736
25.593030
25.628056
25.662812
25.697293
25.731497
25.765423
25.799069
25.832436
25.865523
25.898331
25.930863
25.963121
25.995109
26.026835
26.058305
26.089529
26.120518
26.151285
26.181845
26.212217
26.242422
26.272484
26.302430
26.332290
26.362099
26.391893
26.421715
26.451611
26.481632
26.511833
26.542273
26.573014
26.604127
26.635685
26.667767
26.700455
26.733837
26.768004
26.803050
26.839075
26.876181
26.914474
26.954061
26.995050
27.037550
27.081670
27.127516
27.175197
27.224812
27.276460
27.330228
27.386196
27.444434
27.504996
27.567921
27.633224
27.700896
27.770893
27.843135
27.917494
27.993787
28.071762
28.151084
28.231315
28.311898
28.392133
28.471157
28.547919
28.621170
28.689466
28.751204
28.804706
28.848392
28.880709
28.900905
28.908152
28.901867
23.112213
23.105153
23.101690
23.101775
23.105296
23.112100
23.122014
23.134850
23.150421
23.168541
23.189028
23.211705
23.236404
23.262964
23.291233
23.321065
23.352323
23.384879
23.418613
23.453410
23.489165
23.525781
23.563165
23.601234
23.639909
23.679118
23.718795
23.758879
23.799313
23.840046
23.881030
23.922224
23.963587
24.005085
24.046683
24.088354
24.130069
24.171805
24.213539
24.255251
24.296923
24.338540
24.380084
24.421544
24.462906
24.504160
24.545294
24.586301
24.627171
24.667896
24.708469
24.748883
24.789132
24.829210
24.869111
24.908829
24.948360
24.987698
25.026839
25.065777
25.104509
25.143029
25.181333
25.219416
25.257274
25.294902
25.332295
25.369450
25.406362
25.443027
25.479439
25.515595
25.551490
25.587121
25.622484
25.657576
25.692392
25.726929
25.761186
25.795160
25.828849
25.862254
25.895373
25.928207
25.960757
25.993027
26.025022
26.056745
26.088206
26.119411
26.150373
26.181103
26.211617
26.241933
26.272071
26.302056
26.331913
26.361672
26.391367
26.421036
26.450720
26.480465
26.510321
26.540342
26.570587
26.601120
26.632010
26.663331
26.695161
26.727581
26.760679
26.794546
26.829278
26.864973
26.901735
26.939668
26.978878
27.019475
27.061567
27.105262
27.150671
27.197898
27.247043
27.298204
27.351468
27.406915
27.464616
27.524624
27.586976
27.651688
27.718747
27.788111
27.859700
27.933387
28.008987
28.086249
28.164838
28.244317
28.324132
28.403590
28.481833
28.557815
28.630297
28.697844
28.758862
28.811680
28.854722
28.886569
28.906370
28.913113
28.906490
23.138214
23.131130
23.127679
23.127804
23.131384
23.138259
23.148249
23.161164
23.176813
23.195007
23.215565
23.238309
23.263071
23.289689
23.318011
23.347893
23.379197
23.411797
23.445571
23.480406
23.516199
23.552850
23.590269
23.628373
23.667082
23.706326
23.746037
23.786156
23.826626
23.867397
23.908420
23.949654
23.991058
24.032599
24.074242
24.115958
24.157721
24.199506
24.241291
24.283057
24.324784
24.366456
24.408059
24.449578
24.491002
24.532319
24.573518
24.614591
24.655529
24.696323
24.736966
24.777451
24.817773
24.857924
24.897899
24.937693
24.977299
25.016713
25.055930
25.094945
25.133752
25.172348
25.210728
25.248886
25.286818
25.324519
25.361985
25.399211
25.436192
25.472924
25.509401
25.545620
25.581576
25.617265
25.652682
25.687825
25.722688
25.757269
25.791565
25.825574
25.859293
25.892722
25.925859
25.958706
25.991263
26.023534
26.055521
26.087230
26.118668
26.149842
26.180763
26.211444
26.241900
26.272147
26.302207
26.332101
26.361856
26.391501
26.421071
26.450601
26.480134
26.509715
26.539391
26.569219
26.599256
26.629568
26.660221
26.691290
26.722851
26.754987
26.787785
26.821336
26.855737
26.891085
26.927483
26.965035
27.003849
27.044032
27.085694
27.128945
27.173892
27.220640
27.269289
27.319936
27.372670
27.427570
27.484706
27.544131
27.605880
27.669969
27.736386
27.805089
27.875997
27.948983
28.023863
28.100386
28.178216
28.256923
28.335956
28.414625
28.492078
28.567278
28.638991
28.705794
28.766108
28.818274
28.860685
28.892097
28.911313
28.917554
28.910665
23.165711
23.158641
23.155238
23.155436
23.159103
23.166073
23.176159
23.189169
23.204908
23.223186
23.243820
23.266633
23.291456
23.318128
23.346497
23.376420
23.407760
23.440389
23.474189
23.509047
23.544859
23.581527
23.618961
23.657078
23.695800
23.735057
23.774781
23.814912
23.855395
23.896179
23.937218
23.978467
24.019889
24.061448
24.103112
24.144850
24.186637
24.228448
24.270261
24.312056
24.353815
24.395521
24.437159
24.478717
24.520180
24.561538
24.602781
24.643899
24.684883
24.725726
24.766419
24.806956
24.847330
24.887535
24.927565
24.967414
25.007078
25.046549
25.085824
25.124898
25.163764
25.202418
25.240856
25.279072
25.317062
25.354820
25.392342
25.429622
25.466656
25.503439
25.539966
25.576233
25.612234
25.647965
25.683421
25.718600
25.753496
25.788106
25.822427
25.856456
25.890190
25.923629
25.956771
25.989617
26.022167
26.054424
26.086390
26.118070
26.149471
26.180600
26.211469
26.242088
26.272472
26.302637
26.332603
26.362394
26.392034
26.421553
26.450984
26.480363
26.509730
26.539131
26.568615
26.598236
26.628053
26.658128
26.688530
26.719330
26.750608
26.782444
26.814927
26.848147
26.882200
26.917183
26.953199
26.990352
27.028750
27.068501
27.109715
27.152501
27.196964
27.243210
27.291341
27.341452
27.393633
27.447963
27.504510
27.563326
27.624448
27.687890
27.753642
27.821661
27.891866
27.964130
28.038270
28.114034
28.191092
28.269016
28.347259
28.425135
28.501798
28.576217
28.647169
28.713240
28.772863
28.824400
28.866234
28.897127
28.915759
28.921646
28.914575
23.194597
23.187574
23.184250
23.184546
23.188324
23.195409
23.205608
23.218725
23.234564
23.252933
23.273648
23.296531
23.321414
23.348136
23.376547
23.406502
23.437867
23.470515
23.504328
23.539192
23.575007
23.611674
23.649104
23.687214
23.725928
23.765175
23.804889
23.845010
23.885484
23.926258
23.967287
24.008529
24.049944
24.091497
24.133157
24.174894
24.216680
24.258493
24.300310
24.342111
24.383877
24.425594
24.467244
24.508816
24.550296
24.591673
24.632937
24.674078
24.715087
24.755956
24.796678
24.837245
24.877652
24.917890
24.957955
24.997840
25.037541
25.077050
25.116364
25.155476
25.194382
25.233077
25.271555
25.309811
25.347840
25.385637
25.423196
25.460514
25.497584
25.534402
25.570961
25.607258
25.643288
25.679044
25.714524
25.749723
25.784636
25.819259
25.853589
25.887622
25.921356
25.954790
25.987922
26.020752
26.053280
26.085508
26.117438
26.149075
26.180426
26.211497
26.242298
26.272840
26.303137
26.333206
26.363066
26.392739
26.422251
26.451629
26.480907
26.510120
26.539308
26.568517
26.597795
26.627195
26.656776
26.686601
26.716736
26.747254
26.778234
26.809757
26.841909
26.874782
26.908470
26.943072
26.978689
27.015427
27.053394
27.092696
27.133443
27.175743
27.219704
27.265430
27.313024
27.362581
27.414189
27.467928
27.523864
27.582051
27.642526
27.705304
27.770373
27.837691
27.907176
27.978702
28.052087
28.127084
28.203364
28.280500
28.357951
28.435035
28.510912
28.584560
28.654764
28.720120
28.779071
28.829992
28.871312
28.901629
28.919878
28.925634
28.918420
23.224768
23.217819
23.214598
23.215015
23.218923
23.226138
23.236463
23.249699
23.265646
23.284112
23.304911
23.327866
23.352808
23.379577
23.408024
23.438005
23.469386
23.502041
23.535853
23.570710
23.606511
23.643160
23.680568
23.718653
23.757339
23.796556
23.836238
23.876327
23.916767
23.957508
23.998504
24.039714
24.081098
24.122622
24.164254
24.205964
24.247726
24.289516
24.331312
24.373094
24.414845
24.456547
24.498186
24.539749
24.581222
24.622595
24.663856
24.704997
24.746009
24.786883
24.827611
24.868187
24.908604
24.948854
24.988932
25.028833
25.068549
25.108076
25.147408
25.186540
25.225466
25.264181
25.302680
25.340956
25.379006
25.416823
25.454403
25.491739
25.528827
25.565660
25.602235
25.638545
25.674585
25.710351
25.745837
25.781039
25.815951
25.850570
25.884893
25.918914
25.952633
25.986046
26.019152
26.051949
26.084439
26.116622
26.148502
26.180081
26.211366
26.242363
26.273082
26.303532
26.333729
26.363687
26.393427
26.422968
26.452337
26.481560
26.510670
26.539704
26.568700
26.597702
26.626760
26.655926
26.685257
26.714816
26.744671
26.774894
26.805562
26.836756
26.868563
26.901074
26.934382
26.968588
27.003793
27.040101
27.077619
27.116456
27.156719
27.198518
27.241960
27.287151
27.334191
27.383176
27.434194
27.487324
27.542634
27.600178
27.659992
27.722090
27.786462
27.853064
27.921817
27.992596
28.065221
28.139447
28.214945
28.291294
28.367955
28.444253
28.519355
28.592248
28.661725
28.726390
28.784692
28.835012
28.875829
28.905657
28.923740
28.929338
28.921927
23.256120
23.249269
23.246170
23.246726
23.250779
23.258137
23.268601
23.281964
23.298027
23.316594
23.337480
23.360508
23.385509
23.412323
23.440800
23.470800
23.502189
23.534841
23.568640
23.603477
23.639250
23.675865
23.713233
23.751275
23.789913
23.829080
23.868710
23.908744
23.949129
23.989815
24.030756
24.071910
24.113239
24.154709
24.196288
24.237947
24.279660
24.321403
24.363154
24.404894
24.446604
24.488268
24.529872
24.571401
24.612844
24.654188
24.695424
24.736542
24.777533
24.818388
24.859101
24.899662
24.940067
24.980307
25.020377
25.060271
25.099983
25.139506
25.178836
25.217966
25.256892
25.295607
25.334106
25.372383
25.410434
25.448252
25.485832
25.523167
25.560254
25.597085
25.633656
25.669961
25.705995
25.741751
25.777225
25.812412
25.847307
25.881905
25.916203
25.950196
25.983882
26.017257
26.050320
26.083069
26.115505
26.147628
26.179441
26.210947
26.242150
26.273057
26.303678
26.334023
26.364104
26.393937
26.423541
26.452936
26.482147
26.511201
26.540131
26.568970
26.597760
26.626542
26.655365
26.684282
26.713350
26.742631
26.772192
26.802106
26.832447
26.863299
26.894747
26.926882
26.959798
26.993595
27.028372
27.064235
27.101291
27.139647
27.179413
27.220697
27.263607
27.308248
27.354719
27.403118
27.453531
27.506040
27.560712
27.617600
27.676740
27.738148
27.801811
27.867690
27.935706
28.005734
28.077596
28.151049
28.225767
28.301332
28.377211
28.452736
28.527079
28.599235
28.668005
28.732002
28.789685
28.839435
28.879730
28.909217
28.927042
28.932278
28.924673
23.288554
23.281820
23.278861
23.279570
23.283779
23.291293
23.301902
23.315401
23.331585
23.350259
23.371235
23.394337
23.419395
23.446251
23.474756
23.504769
23.536158
23.568798
23.602574
23.637378
23.673109
23.709675
23.746989
23.784969
23.823542
23.862639
23.902197
23.942157
23.982465
24.023073
24.063936
24.105012
24.146263
24.187656
24.229159
24.270743
24.312383
24.354054
24.395736
24.437408
24.479053
24.520655
24.562199
24.603671
24.645059
24.686352
24.727539
24.768610
24.809556
24.850370
24.891043
24.931568
24.971938
25.012146
25.052186
25.092051
25.131735
25.171234
25.210539
25.249647
25.288551
25.327246
25.365725
25.403983
25.442014
25.479812
25.517372
25.554688
25.591754
25.628564
25.665113
25.701393
25.737401
25.773129
25.808573
25.843728
25.878587
25.913147
25.947402
25.981349
26.014984
26.048305
26.081308
26.113993
26.146358
26.178405
26.210135
26.241550
26.272656
26.303459
26.333967
26.364190
26.394140
26.423833
26.453286
26.482520
26.511559
26.540431
26.569165
26.597797
26.626365
26.654913
26.683489
26.712143
26.740935
26.769925
26.799179
26.828769
26.858771
26.889268
26.920344
26.952091
26.984602
27.017975
27.052312
27.087717
27.124298
27.162162
27.201418
27.242175
27.284540
27.328617
27.374508
27.422309
27.472108
27.523985
27.578008
27.634230
27.692688
27.753397
27.816347
27.881499
27.948774
28.018050
28.089150
28.161831
28.235775
28.310565
28.385675
28.460441
28.534042
28.605480
28.673563
28.736913
28.794000
28.843219
28.883009
28.912182
28.929538
28.934421
28.926691
23.321976
23.315374
23.312568
23.313441
23.317818
23.325494
23.336258
23.349898
23.366208
23.384992
23.406061
23.429238
23.454354
23.481250
23.509779
23.539800
23.571182
23.603802
23.637545
23.672306
23.707984
23.744487
23.781731
23.819635
23.858126
23.897135
23.936601
23.976466
24.016678
24.057187
24.097949
24.138925
24.180075
24.221368
24.262771
24.304257
24.345800
24.387376
24.428965
24.470546
24.512102
24.553618
24.595078
24.636469
24.677778
24.718995
24.760108
24.801109
24.841988
24.882737
24.923348
24.963813
25.004126
25.044278
25.084265
25.124079
25.163715
25.203166
25.242427
25.281491
25.320352
25.359004
25.397442
25.435660
25.473651
25.511410
25.548931
25.586207
25.623232
25.660001
25.696507
25.732744
25.768707
25.804389
25.839785
25.874888
25.909693
25.944196
25.978391
26.012274
26.045842
26.079091
26.112017
26.144620
26.176898
26.208851
26.240481
26.271791
26.302784
26.333466
26.363845
26.393931
26.423735
26.453273
26.482561
26.511620
26.540473
26.569146
26.597671
26.626081
26.654415
26.682716
26.711030
26.739410
26.767912
26.796596