# vtk DataFile Version 3.0
Example structured points dataset
ASCII

DATASET STRUCTURED_POINTS
DIMENSIONS 151 151 2
ORIGIN 0 0 0
SPACING 0.005000 0.005000 0.005000

POINT_DATA 45602
SCALARS Transmembrane_Potential float 1
LOOKUP_TABLE default
23.663099
23.663305
23.664012
23.665218
23.666705
23.668236
23.669630
23.670724
23.671360
23.671371
23.670578
23.668792
23.665813
23.661435
23.655447
23.647640
23.637807
23.625751
23.611281
23.594218
23.574399
23.551670
23.525891
23.496936
23.464691
23.429051
23.389920
23.347211
23.300849
23.250758
23.196869
23.139111
23.077419
23.011730
22.941980
22.868096
22.790000
22.707618
22.620871
22.529671
22.433919
22.333503
22.228308
22.118211
22.003082
21.882767
21.757098
21.625889
21.488948
21.346066
21.197016
21.041540
20.879353
20.710149
20.533603
20.349366
20.157052
19.956228
19.746421
19.527120
19.297778
19.057802
18.806536
18.543253
18.267148
17.977350
17.672913
17.352806
17.015884
16.660873
16.286356
15.890770
15.472402
15.029355
14.559508
14.060468
13.529525
12.963611
12.359229
11.712307
11.017927
10.269839
9.459564
8.574588
7.594372
6.480692
5.152593
3.419318
0.802965
-3.877729
-12.875058
-25.740285
-37.277813
-46.074949
-52.540199
-57.258089
-60.707263
-63.243205
-65.122421
-66.528267
-67.591532
-68.405593
-69.037285
-69.534603
-69.932147
-70.254975
-70.521319
-70.744522
-70.934408
-71.098259
-71.241509
-71.368254
-71.481598
-71.583926
-71.677079
-71.762500
-71.841328
-71.914474
-71.982673
-72.046524
-72.106522
-72.163075
-72.216530
-72.267174
-72.315254
-72.360980
-72.404529
-72.446056
-72.485688
-72.523536
-72.559692
-72.594232
-72.627217
-72.658693
-72.688695
-72.717244
-72.744348
-72.770004
-72.794196
-72.816898
-72.838070
-72.857659
-72.875602
-72.891824
-72.906236
-72.918739
-72.929226
-72.937581
-72.943684
-72.947419
-72.948683
23.663309
23.667828
23.672919
23.678569
23.684544
23.690593
23.696521
23.702161
23.707346
23.711902
23.715646
23.718380
23.719900
23.719992
23.718442
23.715035
23.709561
23.701818
23.691614
23.678770
23.663121
23.644515
23.622812
23.597889
23.569635
23.537948
23.502735
23.463913
23.421411
23.375159
23.325090
23.271138
23.213243
23.151350
23.085397
23.015316
22.941037
22.862488
22.779597
22.692285
22.600455
22.504003
22.402819
22.296789
22.185788
22.069672
21.948279
21.821431
21.688944
21.550621
21.406245
21.255568
21.098316
20.934195
20.762896
20.584083
20.397388
20.202398
19.998656
19.785673
19.562929
19.329859
19.085841
18.830179
18.562112
18.280812
17.985390
17.674880
17.348215
17.004210
16.641553
16.258815
15.854446
15.426758
14.973893
14.493797
13.984209
13.442666
12.866512
12.252858
11.598483
10.899574
10.151122
9.345324
8.467151
7.481909
6.300467
4.684159
2.002530
-3.238427
-13.324458
-26.846978
-38.521348
-47.290502
-53.672988
-58.290529
-61.638066
-64.078524
-65.871417
-67.200843
-68.197217
-68.953053
-69.534150
-69.987468
-70.346648
-70.635899
-70.872723
-71.069840
-71.236552
-71.379701
-71.504360
-71.614317
-71.712427
-71.800859
-71.881278
-71.954979
-72.022974
-72.086068
-72.144903
-72.200003
-72.251793
-72.300626
-72.346797
-72.390549
-72.432092
-72.471600
-72.509222
-72.545082
-72.579287
-72.611925
-72.643066
-72.672770
-72.701079
-72.728026
-72.753629
-72.777896
-72.800821
-72.822388
-72.842569
-72.861321
-72.878593
-72.894317
-72.908414
-72.920788
-72.931332
-72.939921
-72.946415
-72.950651
-72.952443
-72.951560
-72.947669
23.664028
23.672930
23.682361
23.692329
23.702652
23.713104
23.723488
23.733622
23.743323
23.752401
23.760657
23.767882
23.773859
23.778366
23.781180
23.782080
23.780851
23.777289
23.771200
23.762405
23.750740
23.736054
23.718211
23.697090
23.672584
23.644596
23.613037
23.577829
23.538904
23.496199
23.449651
23.399198
23.344789
23.286369
23.223884
23.157270
23.086462
23.011396
22.932003
22.848209
22.759922
22.667045
22.569474
22.467103
22.359810
22.247458
22.129891
22.006940
21.878431
21.744175
21.603959
21.457546
21.304673
21.145059
20.978406
20.804393
20.622662
20.432815
20.234416
20.026998
19.810061
19.583066
19.345414
19.096443
18.835428
18.561588
18.274084
17.972007
17.654355
17.320023
16.967802
16.596387
16.204378
15.790272
15.352439
14.889120
14.398436
13.878423
13.327072
12.742317
12.121961
11.463376
10.762658
10.012254
9.194565
8.265148
7.109394
5.432314
2.493791
-3.363843
-14.383190
-28.271149
-39.874766
-48.500593
-54.741902
-59.232967
-62.470097
-64.815218
-66.526243
-67.785549
-68.721890
-69.426259
-69.963110
-70.378239
-70.704302
-70.964680
-71.176184
-71.350965
-71.497853
-71.623302
-71.732065
-71.827664
-71.912735
-71.989265
-72.058769
-72.122411
-72.181099
-72.235545
-72.286317
-72.333870
-72.378574
-72.420734
-72.460600
-72.498381
-72.534251
-72.568358
-72.600822
-72.631748
-72.661220
-72.689306
-72.716062
-72.741529
-72.765737
-72.788702
-72.810432
-72.830920
-72.850149
-72.868090
-72.884702
-72.899930
-72.913708
-72.925954
-72.936572
-72.945448
-72.952453
-72.957435
-72.960222
-72.960610
-72.958360
-72.953179
-72.944689
23.665252
23.678598
23.692347
23.706577
23.721184
23.735981
23.750775
23.765366
23.779549
23.793111
23.805832
23.817487
23.827843
23.836667
23.843726
23.848794
23.851651
23.852091
23.849921
23.844963
23.837055
23.826049
23.811814
23.794233
23.773205
23.748634
23.720440
23.688551
23.652903
23.613436
23.570093
23.522821
23.471572
23.416296
23.356941
23.293450
23.225765
23.153827
23.077571
22.996924
22.911802
22.822113
22.727761
22.628644
22.524643
22.415625
22.301442
22.181935
22.056937
21.926262
21.789704
21.647031
21.497994
21.342323
21.179731
21.009903
20.832492
20.647113
20.453347
20.250749
20.038837
19.817088
19.584922
19.341705
19.086747
18.819307
18.538587
18.243721
17.933758
17.607659
17.264298
16.902475
16.520904
16.118216
15.692940
15.243518
14.768319
14.265678
13.733908
13.171265
12.575784
11.944795
11.273628
10.552264
9.756994
8.830073
7.630243
5.811401
2.537111
-3.996511
-15.911298
-29.932895
-41.316932
-49.714154
-55.767317
-60.108333
-63.225273
-65.473041
-67.104324
-68.297669
-69.178972
-69.837046
-70.334656
-70.716272
-71.013500
-71.248879
-71.438552
-71.594130
-71.724006
-71.834283
-71.929426
-72.012725
-72.086622
-72.152947
-72.213083
-72.268087
-72.318772
-72.365775
-72.409598
-72.450640
-72.489224
-72.525612
-72.560019
-72.592622
-72.623568
-72.652979
-72.680955
-72.707580
-72.732920
-72.757029
-72.779946
-72.801699
-72.822304
-72.841766
-72.860080
-72.877229
-72.893182
-72.907900
-72.921330
-72.933404
-72.944042
-72.953149
-72.960610
-72.966294
-72.970049
-72.971699
-72.971040
-72.967834
-72.961801
-72.952610
-72.939862
23.666766
23.684600
23.702696
23.721208
23.740105
23.759242
23.778429
23.797446
23.816066
23.834050
23.851157
23.867140
23.881751
23.894746
23.905884
23.914932
23.921670
23.925891
23.927402
23.926030
23.921616
23.914017
23.903108
23.888778
23.870928
23.849473
23.824336
23.795452
23.762762
23.726210
23.685747
23.641325
23.592901
23.540429
23.483859
23.423143
23.358228
23.289059
23.215573
23.137701
23.055364
22.968477
22.876951
22.780683
22.679558
22.573447
22.462211
22.345700
22.223747
22.096171
21.962770
21.823320
21.677582
21.525296
21.366182
21.199928
21.026194
20.844608
20.654771
20.456249
20.248573
20.031228
19.803654
19.565237
19.315317
19.053182
18.778062
18.489116
18.185429
17.866011
17.529799
17.175654
16.802361
16.408615
15.993030
15.554138
15.090410
14.600256
14.082008
13.533813
12.953359
12.337166
11.678837
10.964833
10.164530
9.206990
7.925734
5.924089
2.260811
-5.025834
-17.801702
-31.763528
-42.822162
-50.929799
-56.759464
-60.931366
-63.919285
-66.067041
-67.619464
-68.749619
-69.579548
-70.195300
-70.657624
-71.009491
-71.281373
-71.494947
-71.665685
-71.804673
-71.919897
-72.017130
-72.100578
-72.173319
-72.237627
-72.295191
-72.347281
-72.394857
-72.438657
-72.479249
-72.517080
-72.552502
-72.585796
-72.617189
-72.646866
-72.674977
-72.701646
-72.726973
-72.751040
-72.773914
-72.795647
-72.816276
-72.835829
-72.854322
-72.871759
-72.888135
-72.903433
-72.917624
-72.930669
-72.942516
-72.953101
-72.962345
-72.970153
-72.976415
-72.981002
-72.983763
-72.984525
-72.983086
-72.979216
-72.972645
-72.963059
-72.950095
-72.933327
23.668334
23.690683
23.713179
23.736036
23.759273
23.782773
23.806344
23.829754
23.852749
23.875068
23.896445
23.916616
23.935319
23.952298
23.967307
23.980110
23.990486
23.998230
24.003155
24.005089
24.003880
23.999392
23.991506
23.980116
23.965132
23.946475
23.924074
23.897870
23.867808
23.833840
23.795923
23.754015
23.708074
23.658060
23.603930
23.545639
23.483139
23.416378
23.345295
23.269826
23.189897
23.105431
23.016336
22.922513
22.823850
22.720226
22.611506
22.497543
22.378174
22.253218
22.122479
21.985742
21.842774
21.693320
21.537100
21.373809
21.203114
21.024656
20.838043
20.642850
20.438613
20.224826
20.000940
19.766360
19.520444
19.262492
18.991747
18.707382
18.408506
18.094155
17.763295
17.414810
17.047498
16.660069
16.251143
15.819250
15.362826
14.880184
14.369453
13.828409
13.254092
12.641887
11.983369
11.261329
10.438437
9.431087
8.047058
5.832542
1.720864
-6.414165
-19.968363
-33.707583
-44.366012
-52.141762
-57.722724
-61.711301
-64.563202
-66.608536
-68.082471
-69.151391
-69.932709
-70.509236
-70.939423
-71.264583
-71.513976
-71.708378
-71.862584
-71.987169
-72.089719
-72.175702
-72.249080
-72.312741
-72.368805
-72.418837
-72.464007
-72.505193
-72.543063
-72.578130
-72.610791
-72.641358
-72.670077
-72.697145
-72.722722
-72.746934
-72.769885
-72.791658
-72.812320
-72.831920
-72.850499
-72.868083
-72.884686
-72.900315
-72.914963
-72.928615
-72.941244
-72.952812
-72.963269
-72.972553
-72.980588
-72.987284
-72.992533
-72.996211
-72.998170
-72.998245
-72.996239
-72.991929
-72.985056
-72.975323
-72.962383
-72.945841
-72.925238
23.669772
23.696653
23.723603
23.750868
23.778495
23.806379
23.834324
23.862078
23.889366
23.915904
23.941408
23.965596
23.988194
24.008941
24.027584
24.043889
24.057636
24.068625
24.076672
24.081615
24.083306
24.081619
24.076440
24.067672
24.055231
24.039045
24.019052
23.995196
23.967431
23.935715
23.900008
23.860273
23.816475
23.768577
23.716541
23.660326
23.599888
23.535175
23.466133
23.392701
23.314811
23.232382
23.145329
23.053554
22.956951
22.855400
22.748770
22.636915
22.519673
22.396869
22.268309
22.133784
21.993063
21.845891
21.691992
21.531065
21.362785
21.186795
21.002708
20.810100
20.608511
20.397440
20.176348
19.944646
19.701694
19.446796
19.179194
18.898069
18.602533
18.291628
17.964311
17.619453
17.255829
16.872116
16.466885
16.038586
15.585526
15.105811
14.597253
14.057154
13.481813
12.865424
12.197550
11.457469
10.601328
9.532280
8.028419
5.565816
0.926519
-8.163186
-22.338700
-35.721334
-45.927392
-53.342999
-58.658330
-62.453833
-65.164801
-67.106004
-68.501772
-69.510986
-70.245875
-70.785653
-71.186247
-71.487182
-71.716433
-71.893844
-72.033523
-72.145532
-72.237072
-72.313316
-72.377999
-72.433833
-72.482796
-72.526344
-72.565556
-72.601237
-72.633997
-72.664297
-72.692493
-72.718864
-72.743625
-72.766947
-72.788967
-72.809794
-72.829512
-72.848190
-72.865881
-72.882623
-72.898444
-72.913358
-72.927372
-72.940481
-72.952671
-72.963915
-72.974179
-72.983415
-72.991564
-72.998554
-73.004298
-73.008693
-73.011620
-73.012940
-73.012491
-73.010086
-73.005513
-72.998522
-72.988832
-72.976114
-72.959992
-72.940036
-72.915750
23.670921
23.702343
23.733784
23.765503
23.797554
23.829829
23.862117
23.894148
23.925626
23.956247
23.985709
24.013719
24.039996
24.064271
24.086294
24.105830
24.122667
24.136608
24.147479
24.155123
24.159403
24.160199
24.157407
24.150939
24.140716
24.126675
24.108760
24.086924
24.061126
24.031328
23.997497
23.959601
23.917610
23.871490
23.821207
23.766724
23.707999
23.644986
23.577633
23.505880
23.429660
23.348898
23.263508
23.173397
23.078459
22.978577
22.873620
22.763443
22.647888
22.526780
22.399931
22.267128
22.128140
21.982716
21.830582
21.671439
21.504962
21.330794
21.148547
20.957797
20.758085
20.548914
20.329740
20.099972
19.858964
19.606012
19.340356
19.061167
18.767546
18.458510
18.132988
17.789811
17.427706
17.045284
16.641026
16.213253
15.760086
15.279386
14.768622
14.224611
13.642932
13.016637
12.333387
11.568995
10.672618
9.531793
7.887689
5.129328
-0.137684
-10.282504
-24.851059
-37.770603
-47.488905
-54.526632
-59.565952
-63.162448
-65.729575
-67.565807
-68.883932
-69.834802
-70.525093
-71.030168
-71.403267
-71.682027
-71.893085
-72.055320
-72.182146
-72.283113
-72.365043
-72.432825
-72.489977
-72.539046
-72.581882
-72.619838
-72.653913
-72.684848
-72.713198
-72.739383
-72.763723
-72.786464
-72.807798
-72.827873
-72.846807
-72.864691
-72.881597
-72.897579
-72.912678
-72.926921
-72.940326
-72.952900
-72.964638
-72.975528
-72.985546
-72.994660
-73.002824
-73.009983
-73.016068
-73.020999
-73.024676
-73.026988
-73.027801
-73.026963
-73.024296
-73.019597
-73.012632
-73.003131
-72.990784
-72.975238
-72.956085
-72.932856
-72.905018
23.671622
23.707587
23.743539
23.779736
23.816221
23.852869
23.889448
23.925668
23.961213
23.995760
24.028997
24.060620
24.090342
24.117896
24.143033
24.165524
24.185162
24.201760
24.215151
24.225188
24.231745
24.234709
24.233986
24.229495
24.221169
24.208951
24.192792
24.172651
24.148494
24.120288
24.088008
24.051624
24.011111
23.966439
23.917577
23.864492
23.807145
23.745492
23.679483
23.609060
23.534157
23.454702
23.370612
23.281792
23.188138
23.089533
22.985846
22.876936
22.762644
22.642796
22.517199
22.385643
22.247897
22.103710
21.952807
21.794887
21.629622
21.456651
21.275585
21.085998
20.887427
20.679368
20.461269
20.232527
19.992485
19.740432
19.475588
19.197103
18.904048
18.595404
18.270056
17.926781
17.564242
17.180960
16.775298
16.345427
15.889276
15.404461
14.888130
14.336646
13.744918
13.104931
12.402454
11.609517
10.666896
9.442655
7.632244
4.519684
-1.488295
-12.759285
-27.453224
-39.828491
-49.036434
-55.686506
-60.444569
-63.839279
-66.261447
-67.992760
-69.234087
-70.127963
-70.775288
-71.247416
-71.594794
-71.853103
-72.047599
-72.196184
-72.311564
-72.402781
-72.476282
-72.536681
-72.587291
-72.630498
-72.668034
-72.701160
-72.730800
-72.757638
-72.782181
-72.804810
-72.825815
-72.845416
-72.863780
-72.881039
-72.897293
-72.912619
-72.927077
-72.940708
-72.953543
-72.965601
-72.976890
-72.987408
-72.997144
-73.006076
-73.014175
-73.021398
-73.027694
-73.032999
-73.037235
-73.040311
-73.042120
-73.042539
-73.041421
-73.038600
-73.033884
-73.027053
-73.017851
-73.005989
-72.991131
-72.972896
-72.950842
-72.924466
-72.893192
23.671709
23.712213
23.752680
23.793356
23.834259
23.875238
23.916034
23.956335
23.995805
24.034110
24.070924
24.105940
24.138871
24.169450
24.197433
24.222600
24.244752
24.263712
24.279324
24.291450
24.299975
24.304796
24.305830
24.303005
24.296262
24.285552
24.270833
24.252072
24.229241
24.202314
24.171268
24.136079
24.096726
24.053184
24.005424
23.953416
23.897123
23.836503
23.771506
23.702079
23.628156
23.549666
23.466524
23.378638
23.285902
23.188200
23.085403
22.977367
22.863932
22.744921
22.620143
22.489384
22.352414
22.208977
22.058795
21.901561
21.736944
21.564581
21.384074
21.194993
20.996865
20.789171
20.571349
20.342784
20.102803
19.850674
19.585591
19.306672
19.012950
18.703363
18.376746
18.031813
17.667145
17.281163
16.872109
16.438006
15.976608
15.485309
14.960961
14.399517
13.795267
13.139136
12.414810
11.589773
10.594472
9.273340
7.267196
3.734970
-3.136312
-15.544180
-30.100534
-41.873327
-50.558478
-56.817323
-61.292930
-64.485646
-66.763272
-68.390545
-69.556286
-70.394592
-71.000485
-71.441231
-71.764427
-72.003759
-72.183082
-72.319305
-72.424430
-72.506990
-72.573064
-72.626998
-72.671902
-72.710018
-72.742961
-72.771907
-72.797712
-72.821008
-72.842260
-72.861815
-72.879935
-72.896815
-72.912606
-72.927422
-72.941347
-72.954448
-72.966772
-72.978352
-72.989209
-72.999354
-73.008786
-73.017498
-73.025469
-73.032673
-73.039071
-73.044615
-73.049245
-73.052889
-73.055463
-73.056866
-73.056980
-73.055672
-73.052784
-73.048135
-73.041520
-73.032699
-73.021399
-73.007309
-72.990068
-72.969266
-72.944430
-72.915020
-72.880417
23.671003
23.716035
23.761008
23.806143
23.851426
23.896671
23.941590
23.985847
24.029089
24.070971
24.111160
24.149347
24.185246
24.218597
24.249162
24.276731
24.301116
24.322150
24.339690
24.353610
24.363805
24.370184
24.372673
24.371211
24.365748
24.356242
24.342661
24.324978
24.303170
24.277218
24.247102
24.212807
24.174311
24.131594
24.084631
24.033392
23.977843
23.917944
23.853648
23.784900
23.711635
23.633781
23.551254
23.463963
23.371801
23.274650
23.172380
23.064844
22.951880
22.833312
22.708943
22.578559
22.441923
22.298775
22.148832
21.991784
21.827291
21.654983
21.474456
21.285265
21.086925
20.878906
20.660630
20.431465
20.190715
19.937621
19.671346
19.390972
19.095493
18.783799
18.454667
18.106741
17.738517
17.348320
16.934280
16.494289
16.025942
15.526432
14.992348
14.419271
13.800880
13.126939
12.378652
11.518014
10.463227
9.030840
6.795688
2.764071
-5.108037
-18.559540
-32.754642
-43.887288
-52.045614
-57.914612
-62.109788
-65.102386
-67.237175
-68.762020
-69.853746
-70.638022
-71.203984
-71.614791
-71.915173
-72.136814
-72.302159
-72.427126
-72.523011
-72.597844
-72.657344
-72.705591
-72.745506
-72.779185
-72.808138
-72.833460
-72.855945
-72.876176
-72.894581
-72.911475
-72.927096
-72.941620
-72.955179
-72.967872
-72.979774
-72.990937
-73.001401
-73.011190
-73.020317
-73.028785
-73.036588
-73.043709
-73.050124
-73.055798
-73.060687
-73.064735
-73.067876
-73.070031
-73.071107
-73.070994
-73.069566
-73.066678
-73.062161
-73.055821
-73.047437
-73.036754
-73.023480
-73.007280
-72.987770
-72.964513
-72.937003
-72.904662
-72.866828
23.669317
23.718860
23.768314
23.817871
23.867475
23.916903
23.965835
24.013910
24.060763
24.106036
24.149395
24.190531
24.229163
24.265037
24.297927
24.327633
24.353978
24.376810
24.395997
24.411427
24.423006
24.430655
24.434312
24.433924
24.429452
24.420862
24.408130
24.391235
24.370162
24.344897
24.315426
24.281735
24.243809
24.201628
24.155172
24.104412
24.049316
23.989845
23.925952
23.857581
23.784670
23.707145
23.624922
23.537908
23.445994
23.349062
23.246977
23.139591
23.026741
22.908246
22.783905
22.653498
22.516783
22.373496
22.223348
22.066020
21.901166
21.728403
21.547316
21.357448
21.158302
20.949333
20.729941
20.499473
20.257207
20.002354
19.734046
19.451330
19.153154
18.838359
18.505657
18.153627
17.780685
17.385072
16.964816
16.517690
16.041147
15.532203
14.987212
14.401393
13.767764
13.074722
12.300538
11.400768
10.279055
8.717467
6.206669
1.564806
-7.459647
-21.719881
-35.383719
-45.855867
-53.490201
-58.974699
-62.894034
-65.690067
-67.684784
-69.109443
-70.129054
-70.860970
-71.388502
-71.770735
-72.049554
-72.254646
-72.407060
-72.521726
-72.609243
-72.677147
-72.730801
-72.774028
-72.809562
-72.839365
-72.864845
-72.887019
-72.906625
-72.924200
-72.940138
-72.954728
-72.968184
-72.980664
-72.992286
-73.003135
-73.013276
-73.022753
-73.031594
-73.039818
-73.047431
-73.054428
-73.060797
-73.066517
-73.071557
-73.075875
-73.079421
-73.082135
-73.083943
-73.084757
-73.084479
-73.082989
-73.080153
-73.075814
-73.069793
-73.061883
-73.051848
-73.039415
-73.024276
-73.006073
-72.984399
-72.958787
-72.928700
-72.893526
-72.852557
23.666451
23.720481
23.774382
23.828309
23.882161
23.935673
23.988495
24.040244
24.090538
24.139017
24.185343
24.229211
24.270346
24.308504
24.343471
24.375060
24.403107
24.427474
24.448042
24.464712
24.477404
24.486052
24.490602
24.491015
24.487260
24.479313
24.467157
24.450779
24.430170
24.405320
24.376221
24.342864
24.305236
24.263322
24.217100
24.166547
24.111630
24.052310
23.988541
23.920268
23.847427
23.769943
23.687732
23.600697
23.508728
23.411705
23.309490
23.201932
23.088862
22.970095
22.845425
22.714628
22.577456
22.433638
22.282875
22.124842
21.959178
21.785494
21.603360
21.412307
21.211821
21.001337
20.780236
20.547838
20.303398
20.046097
19.775035
19.489217
19.187546
18.868811
18.531670
18.174638
17.796064
17.394107
16.966702
16.511517
16.025881
15.506655
14.949968
14.350650
13.700954
12.987682
12.185635
11.242479
10.043189
8.324531
5.468705
0.071547
-10.241081
-24.949653
-37.963043
-47.767713
-54.886231
-59.994672
-63.644771
-66.249125
-68.107396
-69.434634
-70.384318
-71.065670
-71.556292
-71.911269
-72.169684
-72.359262
-72.499673
-72.604875
-72.684783
-72.746446
-72.794878
-72.833656
-72.865335
-72.891741
-72.914189
-72.933624
-72.950729
-72.966001
-72.979800
-72.992392
-73.003970
-73.014677
-73.024616
-73.033863
-73.042471
-73.050477
-73.057902
-73.064757
-73.071042
-73.076748
-73.081856
-73.086340
-73.090161
-73.093276
-73.095626
-73.097146
-73.097756
-73.097361
-73.095854
-73.093110
-73.088984
-73.083309
-73.075894
-73.066521
-73.054938
-73.040857
-73.023951
-73.003841
-72.980097
-72.952223
-72.919653
-72.881736
-72.837723
23.662200
23.720687
23.778991
23.837223
23.895237
23.952726
24.009308
24.064580
24.118149
24.169649
24.218744
24.265134
24.308552
24.348767
24.385576
24.418807
24.448311
24.473964
24.495662
24.513320
24.526871
24.536261
24.541449
24.542407
24.539112
24.531552
24.519716
24.503600
24.483199
24.458512
24.429533
24.396256
24.358673
24.316771
24.270531
24.219929
24.164935
24.105510
24.041607
23.973171
23.900136
23.822427
23.739956
23.652626
23.560323
23.462923
23.360285
23.252254
23.138657
23.019302
22.893980
22.762459
22.624484
22.479774
22.328023
22.168895
22.002021
21.826997
21.643380
21.450686
21.248381
21.035882
20.812548
20.577678
20.330498
20.070159
19.795723
19.506158
19.200325
18.876966
18.534688
18.171947
17.787026
17.378009
16.942753
16.478833
15.983472
15.453379
14.884444
14.271054
13.604574
12.869876
12.037347
11.044265
9.751009
7.836273
4.548566
-1.765199
-13.437025
-28.189203
-40.474183
-49.614224
-56.229123
-60.972314
-64.361339
-66.779945
-68.506081
-69.739091
-70.621278
-71.253974
-71.709232
-72.038241
-72.277349
-72.452364
-72.581605
-72.678085
-72.751048
-72.807067
-72.850820
-72.885642
-72.913913
-72.937336
-72.957132
-72.974178
-72.989108
-73.002378
-73.014322
-73.025180
-73.035128
-73.044295
-73.052772
-73.060625
-73.067898
-73.074621
-73.080808
-73.086466
-73.091587
-73.096157
-73.100153
-73.103543
-73.106285
-73.108329
-73.109611
-73.110061
-73.109591
-73.108102
-73.105478
-73.101587
-73.096274
-73.089364
-73.080654
-73.069912
-73.056875
-73.041237
-73.022653
-73.000725
-72.974996
-72.944947
-72.909979
-72.869406
-72.822440
23.656355
23.719263
23.781917
23.844383
23.906464
23.967815
24.028023
24.086668
24.143346
24.197688
24.249362
24.298074
24.343568
24.385624
24.424055
24.458703
24.489435
24.516142
24.538735
24.557145
24.571316
24.581210
24.586798
24.588061
24.584989
24.577578
24.565826
24.549734
24.529306
24.504545
24.475449
24.442018
24.404246
24.362122
24.315629
24.264744
24.209436
24.149668
24.085392
24.016552
23.943080
23.864900
23.781921
23.694042
23.601147
23.503108
23.399779
23.291002
23.176597
23.056369
22.930098
22.797548
22.658453
22.512527
22.359454
22.198885
22.030440
21.853702
21.668213
21.473471
21.268928
21.053979
20.827963
20.590151
20.339744
20.075860
19.797529
19.503684
19.193145
18.864609
18.516634
18.147621
17.755792
17.339170
16.895541
16.422399
15.916856
15.375466
14.793851
14.165882
13.481818
12.724019
11.857056
10.804858
9.397208
7.241607
3.423756
-3.977248
-16.953938
-31.391491
-42.902932
-51.388831
-57.515433
-61.906006
-65.043317
-67.282913
-68.881760
-70.024073
-70.841391
-71.427437
-71.848903
-72.153211
-72.374059
-72.535395
-72.654228
-72.742650
-72.809254
-72.860152
-72.899696
-72.930988
-72.956241
-72.977036
-72.994507
-73.009466
-73.022500
-73.034030
-73.044361
-73.053713
-73.062246
-73.070075
-73.077280
-73.083919
-73.090029
-73.095632
-73.100737
-73.105344
-73.109443
-73.113014
-73.116029
-73.118451
-73.120234
-73.121322
-73.121649
-73.121135
-73.119691
-73.117208
-73.113566
-73.108622
-73.102215
-73.094159
-73.084241
-73.072217
-73.057808
-73.040696
-73.020515
-72.996847
-72.969216
-72.937072
-72.899788
-72.856643
-72.806811
23.648706
23.715996
23.782941
23.849561
23.915611
23.980705
24.044406
24.106275
24.165901
24.222914
24.276985
24.327830
24.375205
24.418902
24.458749
24.494605
24.526353
24.553900
24.577171
24.596113
24.610686
24.620863
24.626629
24.627978
24.624908
24.617426
24.605538
24.589252
24.568580
24.543527
24.514099
24.480298
24.442120
24.399557
24.352594
24.301209
24.245371
24.185043
24.120175
24.050710
23.976579
23.897702
23.813986
23.725327
23.631606
23.532689
23.428428
23.318656
23.203189
23.081825
22.954339
22.820484
22.679989
22.532557
22.377861
22.215540
22.045204
21.866420
21.678716
21.481575
21.274429
21.056653
20.827563
20.586407
20.332357
20.064504
19.781847
19.483282
19.167591
18.833427
18.479302
18.103569
17.704400
17.279758
16.827360
16.344620
15.828537
15.275494
14.680798
14.037670
13.334926
12.551685
11.645273
10.523315
8.977794
6.525726
2.049086
-6.627810
-20.659138
-34.518460
-45.237807
-53.086426
-58.742615
-62.794629
-65.690503
-67.758444
-69.235261
-70.290670
-71.045899
-71.587374
-71.976642
-72.257500
-72.461098
-72.609585
-72.718711
-72.799676
-72.860443
-72.906683
-72.942431
-72.970564
-72.993134
-73.011609
-73.027036
-73.040170
-73.051549
-73.061563
-73.070491
-73.078534
-73.085837
-73.092502
-73.098601
-73.104183
-73.109278
-73.113902
-73.118060
-73.121747
-73.124947
-73.127636
-73.129783
-73.131347
-73.132276
-73.132511
-73.131979
-73.130598
-73.128270
-73.124883
-73.120308
-73.114396
-73.106976
-73.097854
-73.086805
-73.073575
-73.057870
-73.039357
-73.017654
-72.992322
-72.962862
-72.928699
-72.889178
-72.843545
-72.790933
23.639049
23.710677
23.781849
23.852539
23.922455
23.991176
24.058238
24.123187
24.185607
24.245128
24.301426
24.354228
24.403301
24.448453
24.489527
24.526398
24.558966
24.587154
24.610905
24.630178
24.644950
24.655209
24.660951
24.662183
24.658915
24.651160
24.638935
24.622256
24.601138
24.575595
24.545635
24.511265
24.472484
24.429286
24.381656
24.329573
24.273007
24.211919
24.146259
24.075968
24.000975
23.921196
23.836537
23.746889
23.652129
23.552119
23.446704
23.335712
23.218955
23.096222
22.967280
22.831876
22.689729
22.540530
22.383943
22.219597
22.047086
21.865967
21.675750
21.475902
21.265834
21.044903
20.812404
20.567560
20.309519
20.037343
19.749997
19.446344
19.125129
18.784968
18.424331
18.041525
17.634669
17.201670
16.740179
16.247525
15.720590
15.155554
14.547328
13.888298
13.165466
12.353958
11.402094
10.196546
8.479178
5.647384
0.334994
-9.795406
-24.428839
-37.541154
-47.469953
-54.703224
-59.908905
-63.637504
-66.302901
-68.207000
-69.567348
-70.539840
-71.235873
-71.734913
-72.093592
-72.352238
-72.539561
-72.675988
-72.776057
-72.850113
-72.905515
-72.947507
-72.979821
-73.005119
-73.025300
-73.041720
-73.055349
-73.066882
-73.076815
-73.085507
-73.093214
-73.100118
-73.106350
-73.112002
-73.117138
-73.121798
-73.126006
-73.129775
-73.133103
-73.135981
-73.138390
-73.140302
-73.141680
-73.142481
-73.142648
-73.142118
-73.140815
-73.138649
-73.135518
-73.131305
-73.125873
-73.119067
-73.110707
-73.100590
-73.088481
-73.074113
-73.057181
-73.037335
-73.014177
-72.987250
-72.956032
-72.919924
-72.878241
-72.830199
-72.774895
23.627185
23.703103
23.778437
23.853111
23.926792
23.999023
24.069318
24.137209
24.202277
24.264152
24.322520
24.377115
24.427718
24.474153
24.516279
24.553988
24.587197
24.615845
24.639892
24.659313
24.674101
24.684257
24.689792
24.690724
24.687073
24.678864
24.666119
24.648864
24.627120
24.600906
24.570234
24.535115
24.495551
24.451537
24.403061
24.350100
24.292626
24.230598
24.163966
24.092666
24.016627
23.935762
23.849973
23.759146
23.663155
23.561856
23.455089
23.342678
23.224425
23.100112
22.969501
22.832327
22.688302
22.537107
22.378395
22.211782
22.036849
21.853139
21.660146
21.457320
21.244056
21.019691
20.783497
20.534673
20.272342
19.995536
19.703194
19.394145
19.067100
18.720638
18.353186
17.963005
17.548166
17.106520
16.635651
16.132799
15.594707
15.017301
14.395001
13.719155
12.974485
12.130931
11.124773
9.814517
7.875900
4.554412
-1.797581
-13.470082
-28.171628
-40.440007
-49.593340
-56.236749
-61.013262
-64.434356
-66.880715
-68.629099
-69.878751
-70.772448
-71.412256
-71.871033
-72.200735
-72.438393
-72.610388
-72.735506
-72.827127
-72.894778
-72.945242
-72.983353
-73.012555
-73.035304
-73.053351
-73.067949
-73.079991
-73.090117
-73.098785
-73.106323
-73.112964
-73.118876
-73.124177
-73.128947
-73.133243
-73.137099
-73.140533
-73.143553
-73.146153
-73.148320
-73.150031
-73.151255
-73.151951
-73.152072
-73.151559
-73.150342
-73.148341
-73.145464
-73.141602
-73.136632
-73.130411
-73.122776
-73.113541
-73.102492
-73.089386
-73.073943
-73.055846
-73.034730
-73.010181
-72.981723
-72.948813
-72.910830
-72.867060
-72.816688
-72.758777
23.612927
23.693086
23.772511
23.851085
23.928430
24.004059
24.077463
24.148167
24.215745
24.279833
24.340121
24.396358
24.448338
24.495898
24.538917
24.577303
24.610989
24.639933
24.664110
24.683513
24.698150
24.708037
24.713199
24.713665
24.709466
24.700636
24.687208
24.669212
24.646677
24.619627
24.588081
24.552051
24.511542
24.466550
24.417065
24.363066
24.304521
24.241390
24.173620
24.101148
24.023898
23.941780
23.854692
23.762517
23.665122
23.562360
23.454065
23.340052
23.220119
23.094040
22.961569
22.822432
22.676330
22.522935
22.361887
22.192793
22.015219
21.828693
21.632696
21.426660
21.209961
20.981916
20.741776
20.488717
20.221837
19.940143
19.642543
19.327835
18.994695
18.641663
18.267127
17.869304
17.446218
16.995660
16.515144
16.001803
15.452213
14.861996
14.224951
13.531071
12.762026
11.880806
10.807948
9.366047
7.147351
3.208008
-4.398458
-17.515981
-31.824452
-43.202275
-51.604246
-57.685664
-62.055288
-65.185270
-67.424327
-69.025323
-70.170183
-70.989289
-71.575890
-71.996591
-72.298927
-72.516803
-72.674390
-72.788918
-72.872663
-72.934376
-72.980291
-73.014853
-73.041229
-73.061680
-73.077819
-73.090796
-73.101436
-73.110324
-73.117883
-73.124412
-73.130124
-73.135171
-73.139660
-73.143661
-73.147225
-73.150378
-73.153135
-73.155499
-73.157460
-73.159001
-73.160096
-73.160710
-73.160800
-73.160315
-73.159190
-73.157355
-73.154725
-73.151200
-73.146670
-73.141004
-73.134053
-73.125649
-73.115596
-73.103673
-73.089626
-73.073165
-73.053960
-73.031632
-73.005751
-72.975823
-72.941286