# vtk DataFile Version 3.0
Example structured points dataset
ASCII

DATASET STRUCTURED_POINTS
DIMENSIONS 151 151 2
ORIGIN 0 0 0
SPACING 0.005000 0.005000 0.005000

POINT_DATA 45602
SCALARS Transmembrane_Potential float 1
LOOKUP_TABLE default
24.038046
24.039330
24.043235
24.049749
24.058719
24.070010
24.083527
24.099181
24.116875
24.136501
24.157942
24.181072
24.205757
24.231861
24.259248
24.287778
24.317317
24.347733
24.378898
24.410693
24.443001
24.475716
24.508735
24.541966
24.575321
24.608719
24.642087
24.675356
24.708465
24.741358
24.773983
24.806292
24.838243
24.869798
24.900924
24.931588
24.961761
24.991417
25.020536
25.049096
25.077078
25.104465
25.131240
25.157391
25.182906
25.207774
25.231983
25.255521
25.278380
25.300552
25.322031
25.342807
25.362872
25.382218
25.400836
25.418723
25.435872
25.452275
25.467922
25.482806
25.496920
25.510258
25.522815
25.534580
25.545544
25.555697
25.565032
25.573543
25.581222
25.588059
25.594043
25.599163
25.603411
25.606779
25.609260
25.610843
25.611516
25.611268
25.610089
25.607971
25.604907
25.600889
25.595904
25.589941
25.582990
25.575045
25.566101
25.556153
25.545191
25.533209
25.520198
25.506156
25.491087
25.474991
25.457870
25.439727
25.420566
25.400399
25.379243
25.357123
25.334066
25.310104
25.285273
25.259623
25.233217
25.206133
25.178464
25.150311
25.121796
25.093060
25.064273
25.035634
25.007372
24.979745
24.953040
24.927581
24.903735
24.881913
24.862569
24.846195
24.833317
24.824492
24.820314
24.821403
24.828401
24.841949
24.862678
24.891184
24.928019
24.973676
25.028565
25.092979
25.167066
25.250794
25.343930
25.446016
25.556339
25.673901
25.797385
25.925131
26.055135
26.185069
26.312315
26.434030
26.547220
26.648860
26.736054
26.806137
26.857427
26.888967
26.899639
24.039343
24.039326
24.042537
24.048728
24.057630
24.069043
24.082835
24.098888
24.117084
24.137299
24.159401
24.183251
24.208708
24.235625
24.263857
24.293260
24.323692
24.355016
24.387100
24.419821
24.453059
24.486704
24.520652
24.554809
24.589084
24.623398
24.657673
24.691841
24.725841
24.759614
24.793110
24.826280
24.859081
24.891477
24.923431
24.954914
24.985894
25.016348
25.046251
25.075587
25.104334
25.132474
25.159992
25.186875
25.213112
25.238691
25.263601
25.287828
25.311366
25.334206
25.356343
25.377766
25.398467
25.418437
25.437668
25.456157
25.473896
25.490878
25.507092
25.522530
25.537185
25.551052
25.564124
25.576392
25.587844
25.598471
25.608265
25.617219
25.625326
25.632576
25.638956
25.644454
25.649062
25.652772
25.655576
25.657464
25.658421
25.658435
25.657496
25.655596
25.652728
25.648881
25.644043
25.638200
25.631343
25.623463
25.614556
25.604615
25.593630
25.581591
25.568490
25.554324
25.539092
25.522797
25.505439
25.487017
25.467533
25.446998
25.425428
25.402845
25.379275
25.354747
25.329294
25.302963
25.275816
25.247929
25.219392
25.190304
25.160784
25.130971
25.101033
25.071169
25.041608
25.012608
24.984458
24.957482
24.932051
24.908581
24.887535
24.869414
24.854754
24.844127
24.838141
24.837434
24.842671
24.854517
24.873626
24.900623
24.936086
24.980536
25.034411
25.098032
25.171572
25.255019
25.348154
25.450526
25.561427
25.679850
25.804458
25.933558
26.065091
26.196647
26.325503
26.448667
26.562959
26.665123
26.752035
26.820693
26.869258
26.896402
26.899938
24.043288
24.042577
24.045318
24.051250
24.060103
24.071661
24.085760
24.102254
24.121000
24.141854
24.164668
24.189290
24.215566
24.243339
24.272457
24.302766
24.334121
24.366378
24.399402
24.433065
24.467246
24.501832
24.536717
24.571805
24.607005
24.642235
24.677418
24.712485
24.747374
24.782028
24.816393
24.850423
24.884073
24.917307
24.950091
24.982392
25.014180
25.045432
25.076124
25.106238
25.135753
25.164652
25.192919
25.220542
25.247510
25.273810
25.299430
25.324360
25.348590
25.372114
25.394924
25.417012
25.438367
25.458981
25.478848
25.497962
25.516316
25.533902
25.550710
25.566731
25.581959
25.596387
25.610008
25.622812
25.634789
25.645927
25.656220
25.665661
25.674240
25.681946
25.688768
25.694693
25.699711
25.703816
25.706997
25.709244
25.710541
25.710876
25.710239
25.708621
25.706013
25.702404
25.697780
25.692127
25.685436
25.677697
25.668904
25.659048
25.648119
25.636105
25.622998
25.608793
25.593489
25.577086
25.559581
25.540972
25.521261
25.500456
25.478572
25.455628
25.431648
25.406656
25.380685
25.353781
25.326001
25.297421
25.268124
25.238210
25.207793
25.177010
25.146029
25.115047
25.084290
25.054016
25.024512
24.996106
24.969172
24.944129
24.921445
24.901628
24.885221
24.872809
24.865013
24.862489
24.865917
24.875983
24.893362
24.918699
24.952600
24.995610
25.048192
25.110688
25.183289
25.266000
25.358618
25.460701
25.571542
25.690131
25.815118
25.944782
26.077027
26.209381
26.339029
26.462847
26.577484
26.679493
26.765577
26.832528
26.878522
26.901986
26.900659
24.049868
24.048834
24.051317
24.057117
24.066006
24.077774
24.092238
24.109226
24.128573
24.150114
24.173683
24.199113
24.226239
24.254895
24.284918
24.316149
24.348436
24.381631
24.415596
24.450200
24.485318
24.520837
24.556649
24.592656
24.628767
24.664899
24.700976
24.736927
24.772691
24.808209
24.843428
24.878302
24.912788
24.946847
24.980447
25.013553
25.046139
25.078178
25.109650
25.140534
25.170810
25.200462
25.229473
25.257833
25.285528
25.312548
25.338879
25.364511
25.389438
25.413649
25.437139
25.459897
25.481914
25.503182
25.523696
25.543448
25.562431
25.580636
25.598053
25.614675
25.630495
25.645506
25.659699
25.673064
25.685589
25.697267
25.708088
25.718045
25.727128
25.735324
25.742621
25.749009
25.754477
25.759017
25.762618
25.765266
25.766948
25.767652
25.767366
25.766081
25.763786
25.760469
25.756114
25.750709
25.744244
25.736708
25.728094
25.718389
25.707583
25.695663
25.682621
25.668452
25.653153
25.636719
25.619147
25.600432
25.580577
25.559588
25.537479
25.514264
25.489963
25.464600
25.438205
25.410823
25.382509
25.353334
25.323378
25.292735
25.261520
25.229868
25.197944
25.165943
25.134089
25.102634
25.071867
25.042117
25.013760
24.987220
24.962965
24.941507
24.923395
24.909225
24.899632
24.895284
24.896877
24.905110
24.920675
24.944239
24.976431
25.017818
25.068882
25.129985
25.201330
25.282940
25.374623
25.475950
25.586214
25.704401
25.829146
25.958708
26.090959
26.223379
26.353075
26.476817
26.591119
26.692397
26.777246
26.842368
26.886058
26.906439
26.901452
24.058930
24.057829
24.060264
24.066100
24.075155
24.087232
24.102137
24.119681
24.139679
24.161946
24.186301
24.212563
24.240555
24.270101
24.301031
24.333180
24.366390
24.400511
24.435401
24.470925
24.506959
24.543386
24.580099
24.616999
24.653994
24.691000
24.727942
24.764749
24.801359
24.837713
24.873759
24.909451
24.944746
24.979606
25.013996
25.047885
25.081245
25.114052
25.146282
25.177917
25.208936
25.239323
25.269064
25.298146
25.326556
25.354282
25.381314
25.407641
25.433255
25.458148
25.482311
25.505734
25.528411
25.550332
25.571493
25.591884
25.611498
25.630325
25.648358
25.665588
25.682009
25.697611
25.712386
25.726323
25.739412
25.751644
25.763011
25.773502
25.783107
25.791813
25.799610
25.806485
25.812430
25.817432
25.821480
25.824560
25.826659
25.827765
25.827867
25.826953
25.825010
25.822024
25.817981
25.812869
25.806677
25.799393
25.791006
25.781504
25.770873
25.759103
25.746185
25.732113
25.716879
25.700477
25.682901
25.664148
25.644218
25.623118
25.600857
25.577445
25.552900
25.527243
25.500505
25.472728
25.443965
25.414280
25.383749
25.352465
25.320539
25.288106
25.255330
25.222399
25.189533
25.156981
25.125032
25.094019
25.064316
25.036349
25.010585
24.987538
24.967764
24.951868
24.940496
24.934328
24.934068
24.940429
24.954116
24.975818
25.006183
25.045799
25.095164
25.154652
25.224481
25.304689
25.395098
25.495285
25.604548
25.721862
25.845852
25.974759
26.106430
26.238306
26.367434
26.490502
26.603931
26.704040
26.787366
26.850631
26.892204
26.909832
26.901880
24.070339
24.069362
24.071942
24.077989
24.087353
24.099849
24.115280
24.133443
24.154137
24.177163
24.202324
24.229429
24.258287
24.288717
24.320541
24.353589
24.387700
24.422719
24.458501
24.494913
24.531827
24.569126
24.606702
24.644455
24.682295
24.720136
24.757903
24.795527
24.832944
24.870096
24.906931
24.943404
24.979472
25.015096
25.050243
25.084882
25.118984
25.152526
25.185486
25.217841
25.249576
25.280673
25.311118
25.340897
25.369999
25.398410
25.426122
25.453124
25.479408
25.504965
25.529785
25.553861
25.577184
25.599748
25.621544
25.642564
25.662800
25.682243
25.700887
25.718722
25.735740
25.751932
25.767287
25.781798
25.795453
25.808244
25.820161
25.831193
25.841327
25.850553
25.858859
25.866235
25.872669
25.878148
25.882659
25.886189
25.888725
25.890255
25.890767
25.890247
25.888680
25.886052
25.882351
25.877564
25.871677
25.864678
25.856554
25.847290
25.836875
25.825298
25.812548
25.798616
25.783493
25.767170
25.749641
25.730903
25.710955
25.689800
25.667443
25.643894
25.619165
25.593279
25.566265
25.538162
25.509018
25.478892
25.447858
25.416005
25.383445
25.350309
25.316756
25.282969
25.249164
25.215589
25.182534
25.150328
25.119348
25.090016
25.062798
25.038210
25.016816
24.999228
24.986099
24.978117
24.975993
24.980451
24.992213
25.011984
25.040430
25.078156
25.125670
25.183360
25.251460
25.330021
25.418878
25.517615
25.625528
25.741585
25.864402
25.992208
26.122830
26.253680
26.381758
26.503695
26.615850
26.714480
26.796079
26.857503
26.896969
26.912013
26.901552
24.083998
24.083298
24.086187
24.092600
24.102406
24.115428
24.131466
24.150306
24.171737
24.195545
24.221523
24.249469
24.279184
24.310480
24.343173
24.377090
24.412066
24.447945
24.484580
24.521835
24.559584
24.597708
24.636100
24.674659
24.713294
24.751923
24.790467
24.828859
24.867034
24.904937
24.942517
24.979725
25.016520
25.052865
25.088726
25.124073
25.158877
25.193115
25.226763
25.259803
25.292217
25.323989
25.355104
25.385547
25.415308
25.444376
25.472739
25.500389
25.527315
25.553508
25.578962
25.603667
25.627615
25.650799
25.673210
25.694840
25.715681
25.735725
25.754964
25.773389
25.790991
25.807759
25.823686
25.838762
25.852976
25.866319
25.878779
25.890345
25.901005
25.910750
25.919567
25.927444
25.934368
25.940325
25.945304
25.949290
25.952272
25.954235
25.955166
25.955050
25.953871
25.951618
25.948276
25.943831
25.938269
25.931575
25.923734
25.914734
25.904561
25.893204
25.880651
25.866890
25.851909
25.835699
25.818255
25.799571
25.779645
25.758476
25.736066
25.712423
25.687560
25.661496
25.634258
25.605882
25.576410
25.545899
25.514419
25.482060
25.448927
25.415151
25.380883
25.346303
25.311622
25.277089
25.242990
25.209655
25.177456
25.146812
25.118189
25.092107
25.069133
25.049886
25.035021
25.025233
25.021239
25.023775
25.033577
25.051366
25.077821
25.113558
25.159099
25.214844
25.281044
25.357764
25.444847
25.541882
25.648162
25.762655
25.883969
26.010326
26.139538
26.268994
26.395660
26.516132
26.626727
26.723672
26.803406
26.863006
26.900239
26.912846
26.900212
24.099820
24.099521
24.102852
24.109762
24.120125
24.133767
24.150482
24.170050
24.192249
24.216856
24.243653
24.272431
24.302985
24.335120
24.368651
24.403399
24.439198
24.475890
24.513329
24.551378
24.589909
24.628804
24.667957
24.707267
24.746643
24.786002
24.825268
24.864373
24.903254
24.941855
24.980123
25.018014
25.055486
25.092501
25.129027
25.165032
25.200490
25.235376
25.269669
25.303349
25.336399
25.368803
25.400545
25.431613
25.461995
25.491680
25.520658
25.548918
25.576451
25.603249
25.629304
25.654607
25.679150
25.702924
25.725921
25.748134
25.769555
25.790175
25.809985
25.828976
25.847139
25.864464
25.880943
25.896565
25.911320
25.925197
25.938184
25.950271
25.961446
25.971698
25.981014
25.989381
25.996785
26.003214
26.008655
26.013094
26.016518
26.018911
26.020259
26.020546
26.019759
26.017884
26.014905
26.010807
26.005575
25.999193
25.991647
25.982923
25.973007
25.961885
25.949544
25.935969
25.921150
25.905077
25.887742
25.869137
25.849258
25.828102
25.805669
25.781966
25.757004
25.730799
25.703375
25.674763
25.645004
25.614151
25.582274
25.549456
25.515801
25.481433
25.446500
25.411177
25.375675
25.340238
25.305151
25.270738
25.237368
25.205457
25.175475
25.147941
25.123427
25.102549
25.085969
25.074384
25.068521
25.069126
25.076947
25.092715
25.117122
25.150793
25.194265
25.247953
25.312122
25.386846
25.471980
25.567112
25.671540
25.784230
25.903790
26.028436
26.155970
26.283760
26.408754
26.527521
26.636365
26.731495
26.809295
26.867030
26.901937
26.912304
26.897768
24.117705
24.117912
24.121796
24.129308
24.140323
24.154662
24.172114
24.192450
24.215441
24.240855
24.268467
24.298062
24.329430
24.362374
24.396702
24.432238
24.468813
24.506268
24.544458
24.583244
24.622500
24.662109
24.701963
24.741964
24.782020
24.822050
24.861978
24.901736
24.941262
24.980501
25.019400
25.057916
25.096008
25.133637
25.170771
25.207380
25.243438
25.278921
25.313807
25.348077
25.381713
25.414699
25.447022
25.478669
25.509627
25.539885
25.569433
25.598261
25.626361
25.653723
25.680340
25.706201
25.731300
25.755629
25.779178
25.801940
25.823907
25.845070
25.865418
25.884945
25.903640
25.921494
25.938497
25.954639
25.969908
25.984294
25.997785
26.010371
26.022039
26.032776
26.042570
26.051408
26.059275
26.066160
26.072048
26.076926
26.080776
26.083586
26.085339
26.086021
26.085618
26.084113
26.081491
26.077734
26.072828
26.066757
26.059505
26.051058
26.041400
26.030515
26.018389
26.005008
25.990360
25.974434
25.957218
25.938705
25.918887
25.897759
25.875323
25.851581
25.826542
25.800220
25.772634
25.743813
25.713797
25.682635
25.650395
25.617155
25.583013
25.548090
25.512531
25.476508
25.440229
25.403934
25.367901
25.332451
25.297951
25.264817
25.233517
25.204570
25.178547
25.156066
25.137789
25.124421
25.116696
25.115369
25.121196
25.134916
25.157232
25.188781
25.230115
25.281662
25.343700
25.416313
25.499360
25.592437
25.694847
25.805560
25.923184
26.045931
26.171592
26.297525
26.420665
26.537571
26.644539
26.737784
26.813655
26.869416
26.902081
26.910495
26.894287
24.137547
24.138347
24.142874
24.151074
24.162817
24.177915
24.196149
24.217285
24.241082
24.267305
24.295722
24.326114
24.358269
24.391984
24.427070
24.463347
24.500647
24.538812
24.577695
24.617160
24.657081
24.697342
24.737835
24.778463
24.819137
24.859773
24.900299
24.940647
24.980755
25.020568
25.060037
25.099116
25.137765
25.175948
25.213631
25.250786
25.287387
25.323409
25.358831
25.393635
25.427803
25.461319
25.494171
25.526344
25.557826
25.588608
25.618678
25.648027
25.676646
25.704527
25.731659
25.758036
25.783648
25.808489
25.832549
25.855819
25.878292
25.899958
25.920808
25.940833
25.960025
25.978372
25.995864
26.012491
26.028242
26.043105
26.057070
26.070124
26.082255
26.093449
26.103693
26.112976
26.121282
26.128598
26.134909
26.140200
26.144455
26.147661
26.149801
26.150860
26.150822
26.149670
26.147388
26.143958
26.139365
26.133594
26.126626
26.118446
26.109036
26.098381
26.086466
26.073275
26.058796
26.043015
26.025920
26.007499
25.987745
25.966653
25.944221
25.920449
25.895344
25.868916
25.841182
25.812170
25.781916
25.750468
25.717887
25.684247
25.649645
25.614195
25.578041
25.541353
25.504330
25.467210
25.430265
25.393813
25.358220
25.323899
25.291316
25.260989
25.233485
25.209423
25.189472
25.174338
25.164764
25.161508
25.165333
25.176988
25.197185
25.226576
25.265725
25.315073
25.374908
25.445322
25.526183
25.617097
25.717374
25.825989
25.941550
26.062266
26.185922
26.309872
26.431046
26.546000
26.651026
26.742354
26.816358
26.870069
26.900783
26.907645
26.889948
24.159226
24.160692
24.165936
24.174893
24.187424
24.203329
24.222380
24.244335
24.268947
24.295974
24.325183
24.356349
24.389258
24.423708
24.459508
24.496479
24.534453
24.573272
24.612791
24.652875
24.693400
24.734249
24.775317
24.816507
24.857732
24.898910
24.939967
24.980838
25.021463
25.061786
25.101758
25.141335
25.180478
25.219151
25.257321
25.294960
25.332041
25.368541
25.404440
25.439720
25.474362
25.508351
25.541674
25.574318
25.606271
25.637522
25.668062
25.697880
25.726967
25.755314
25.782914
25.809757
25.835836
25.861141
25.885664
25.909397
25.932331
25.954457
25.975765
25.996248
26.015893
26.034691
26.052632
26.069705
26.085900
26.101203
26.115604
26.129089
26.141646
26.153263
26.163925
26.173619
26.182331
26.190045
26.196747
26.202422
26.207055
26.210629
26.213129
26.214538
26.214839
26.214014
26.212049
26.208925
26.204625
26.199133
26.192429
26.184496
26.175318
26.164878
26.153160
26.140148
26.125826
26.110179
26.093193
26.074858
26.055164
26.034105
26.011674
25.987872
25.962700
25.936168
25.908293
25.879098
25.848617
25.816892
25.783981
25.749956
25.714910
25.678955
25.642229
25.604897
25.567155
25.529233
25.491403
25.453979
25.417323
25.381846
25.348008
25.316326
25.287366
25.261749
25.240145
25.223266
25.211855
25.206676
25.208499
25.218080
25.236146
25.263359
25.300295
25.347405
25.404986
25.473141
25.551752
25.640435
25.738507
25.844945
25.958361
26.076961
26.198533
26.320431
26.439585
26.552549
26.655614
26.745017
26.817214
26.868949
26.898147
26.903792
26.884653
24.182616
24.184810
24.190830
24.200599
24.213963
24.230711
24.250603
24.273389
24.298817
24.326641
24.356623
24.388538
24.422169
24.457316
24.493787
24.531403
24.569998
24.609417
24.649515
24.690158
24.731223
24.772597
24.814176
24.855863
24.897573
24.939225
24.980747
25.022075
25.063148
25.103913
25.144322
25.184332
25.223903
25.263000
25.301592
25.339649
25.377148
25.414064
25.450378
25.486071
25.521126
25.555528
25.589264
25.622320
25.654686
25.686350
25.717303
25.747534
25.777034
25.805796
25.833810
25.861067
25.887559
25.913278
25.938214
25.962361
25.985707
26.008245
26.029964
26.050856
26.070909
26.090113
26.108459
26.125935
26.142529
26.158229
26.173023
26.186898
26.199842
26.211840
26.222880
26.232947
26.242026
26.250101
26.257159
26.263183
26.268157
26.272065
26.274891
26.276616
26.277224
26.276697
26.275020
26.272172
26.268136
26.262894
26.256427
26.248718
26.239749
26.229502
26.217959
26.205103
26.190917
26.175385
26.158494
26.140231
26.120584
26.099543
26.077103
26.053259
26.028014
26.001375
25.973356
25.943977
25.913266
25.881266
25.848029
25.813627
25.778147
25.741698
25.704413
25.666451
25.628004
25.589300
25.550606
25.512233
25.474538
25.437926
25.402857
25.369842
25.339450
25.312302
25.289068
25.270461
25.257225
25.250132
25.249958
25.257470
25.273404
25.298431
25.333138
25.377986
25.433284
25.499150
25.575478
25.661892
25.757715
25.861933
25.973157
26.089601
26.209056
26.328878
26.446000
26.556978
26.658101
26.745600
26.816001
26.865985
26.893961
26.898197
26.877544
24.207585
24.210558
24.217402
24.228025
24.242257
24.259872
24.280621
24.304244
24.330485
24.359093
24.389829
24.422465
24.456786
24.492591
24.529689
24.567903
24.607070
24.647034
24.687653
24.728797
24.770342
24.812179
24.854203
24.896322
24.938451
24.980510
25.022430
25.064147
25.105601
25.146742
25.187521
25.227895
25.267827
25.307282
25.346229
25.384641
25.422492
25.459759
25.496424
25.532467
25.567873
25.602626
25.636714
25.670122
25.702841
25.734858
25.766165
25.796752
25.826610
25.855728
25.884100
25.911716
25.938568
25.964647
25.989944
26.014451
26.038158
26.061056
26.083135
26.104385
26.124797
26.144360
26.163062
26.180892
26.197837
26.213887
26.229029
26.243249
26.256535
26.268871
26.280245
26.290641
26.300044
26.308439
26.315811
26.322144
26.327420
26.331622
26.334734
26.336738
26.337617
26.337352
26.335926
26.333319
26.329513
26.324488
26.318227
26.310711
26.301920
26.291836
26.280439
26.267711
26.253636
26.238197
26.221377
26.203163
26.183541
26.162499
26.140031
26.116131
26.090799
26.064041
26.035866
26.006291
25.975344
25.943063
25.909500
25.874720
25.838808
25.801868
25.764027
25.725442
25.686301
25.646828
25.607286
25.567979
25.529259
25.491530
25.455246
25.420920
25.389118
25.360460
25.335613
25.315293
25.300248
25.291254
25.289097
25.294550
25.308356
25.331198
25.363670
25.406249
25.459257
25.522826
25.596859
25.680989
25.774548
25.876529
25.985550
26.099833
26.217173
26.334931
26.450040
26.559060
26.658286
26.743939
26.812534
26.861012
26.887548
26.890046
26.867916
24.233995
24.237790
24.245496
24.257006
24.272130
24.290629
24.312243
24.336704
24.363751
24.393128
24.424597
24.457927
24.492906
24.529330
24.567014
24.605781
24.645468
24.685925
24.727011
24.768597
24.810564
24.852801
24.895209
24.937696
24.980179
25.022580
25.064831
25.106870
25.148639
25.190087
25.231169
25.271841
25.312068
25.351814
25.391051
25.429750
25.467887
25.505441
25.542393
25.578723
25.614416
25.649457
25.683833
25.717532
25.750543
25.782854
25.814456
25.845339
25.875494
25.904912
25.933584
25.961502
25.988657
26.015041
26.040643
26.065455
26.089469
26.112673
26.135060
26.156617
26.177336
26.197204
26.216211
26.234344
26.251593
26.267944
26.283384
26.297901
26.311479
26.324106
26.335766
26.346445
26.356128
26.364798
26.372439
26.379034
26.384568
26.389021
26.392378
26.394620
26.395728
26.395684
26.394468
26.392063
26.388448
26.383604
26.377513
26.370152
26.361504
26.351547
26.340263
26.327633
26.313638
26.298261
26.281483
26.263289
26.243665
26.222597
26.200078
26.176101
26.150662
26.123764
26.095414
26.065629
26.034433
26.001861
25.967962
25.932797
25.896446
25.859009
25.820612
25.781407
25.741578
25.701342
25.660958
25.620725
25.580992
25.542159
25.504678
25.469058
25.435862
25.405708
25.379264
25.357247
25.340410
25.329535
25.325409
25.328815
25.340503
25.361166
25.391412
25.431731
25.482458
25.543736
25.615477
25.697328
25.788629
25.888384
25.995221
26.107366
26.222620
26.338345
26.451478
26.558585
26.655968
26.739856
26.806682
26.853728
26.878437
26.879202
26.855725
24.261709
24.266360
24.274959
24.287378
24.303411
24.322805
24.345287
24.370583
24.398424
24.428556
24.460735
24.494733
24.530336
24.567345
24.605574
24.644849
24.685011
24.725911
24.767411
24.809384
24.851714
24.894293
24.937024
24.979816
25.022590
25.065269
25.107787
25.150083
25.192101
25.233791
25.275109
25.316013
25.356467
25.396439
25.435899
25.474821
25.513180
25.550956
25.588128
25.624681
25.660598
25.695864
25.730467
25.764395
25.797635
25.830179
25.862015
25.893134
25.923527
25.953186
25.982100
26.010262
26.037663
26.064293
26.090144
26.115207
26.139471
26.162928
26.185567
26.207377
26.228348
26.248469
26.267728
26.286113
26.303612
26.320212
26.335900
26.350662
26.364484
26.377351
26.389249
26.400163
26.410076
26.418972
26.426834
26.433646
26.439391
26.444050
26.447606
26.450040
26.451332
26.451464
26.450417
26.448171
26.444706
26.440002
26.434038
26.426793
26.418247
26.408381
26.397173
26.384605
26.370654
26.355303
26.338533
26.320327
26.300670
26.279549
26.256951
26.232868
26.207294
26.180232
26.151686
26.121671
26.090207
26.057328
26.023077
25.987512
25.950711
25.912771
25.873812
25.833984
25.793463
25.752464
25.711239
25.670085
25.629347
25.589420
25.550753
25.513850
25.479272
25.447635
25.419609
25.395913
25.377303
25.364561
25.358483
25.359856
25.369440
25.387941
25.415980
25.454057
25.502519
25.561522
25.630990
25.710584
25.799656
25.897219
26.001910
26.111959
26.225172
26.338914
26.450126
26.555377
26.650975
26.733168
26.798351
26.843796
26.866693
26.866025
26.841348
24.290589
24.296124
24.305637
24.318984
24.335937
24.356230
24.379579
24.405702
24.434328
24.465196
24.498064
24.532704
24.568901
24.606460
24.645195
24.684938
24.725530
24.766825
24.808688
24.850996
24.893634
24.936498
24.979493
25.022532
25.065535
25.108431
25.151153
25.193642
25.235845
25.277713
25.319203
25.360274
25.400892
25.441025
25.480643
25.519722
25.558239
25.596172
25.633503
25.670215
25.706292
25.741721
25.776488
25.810582
25.843991
25.876705
25.908715
25.940011
25.970583
26.000422
26.029520
26.057868
26.085456
26.112277
26.138320
26.163576
26.188035
26.211687
26.234523
26.256531
26.277700
26.298020
26.317477
26.336060
26.353757
26.370553
26.386436
26.401392
26.415406
26.428463
26.440547
26.451644
26.461737
26.470810
26.478845
26.485825
26.491733
26.496549
26.500256
26.502834
26.504265
26.504528
26.503604
26.501472
26.498112
26.493502
26.487622
26.480450
26.471967
26.462150
26.450978
26.438429
26.424484
26.409121
26.392323
26.374071
26.354347
26.333136
26.310426
26.286205
26.260469
26.233214
26.204447
26.174177
26.142422
26.109213
26.074589
26.038608
26.001343
25.962887
25.923356
25.882894
25.841675
25.799907
25.757840
25.715767
25.674027
25.633011
25.593162
25.554983
25.519032
25.485926
25.456334
25.430974
25.410604
25.396011
25.387995
25.387353
25.394855
25.411217
25.437071
25.472928
25.519150
25.575905
25.643133
25.720508
25.807394
25.902813
26.005408
26.113417
26.224649
26.336475
26.445839
26.549308
26.643189
26.723741
26.787427
26.831166
26.852667
26.851002
26.825186
24.320499
24.326940
24.337386
24.351670
24.369549
24.390742
24.414954
24.441896
24.471292
24.502880
24.536415
24.571671
24.608434
24.646510
24.685716
24.725887
24.766867
24.808512
24.850692
24.893284
24.936179
24.979275
25.022479
25.065708
25.108883
25.151936
25.194802
25.237424
25.279751
25.321734
25.363333
25.404508
25.445227
25.485457
25.525171
25.564345
25.602956
25.640984
25.678410
25.715219
25.751394
25.786924
25.821794
25.855993
25.889510
25.922336
25.954459
25.985871
26.016562
26.046524
26.075747
26.104223
26.131941
26.158894
26.185072
26.210464
26.235062
26.258854
26.281832
26.303982
26.325295
26.345758
26.365360
26.384087
26.401928
26.418868
26.434893
26.449990
26.464143
26.477337
26.489557
26.500786
26.511009
26.520208
26.528365
26.535463
26.541483
26.546408
26.550217
26.552892
26.554413
26.554759
26.553910
26.551845
26.548543
26.543982
26.538142
26.531000
26.522535
26.512723
26.501543
26.488973
26.474992
26.459579
26.442713
26.424375
26.404546
26.383209
26.360351
26.335960
26.310029
26.282552
26.253533
26.222978
26.190905
26.157340
26.122323
26.085905
26.048157
26.009168
25.969049
25.927940
25.886011
25.843468
25.800555
25.757559
25.714815
25.672709
25.631681
25.592232
25.554917
25.520352
25.489204
25.462191
25.440074
25.423644
25.413709
25.411074
25.416517
25.430763
25.454455
25.488120
25.532133
25.586678
25.651711
25.726914
25.811666
25.904995
26.005556
26.111593
26.220921
26.330913
26.438515
26.540291
26.632540
26.711506
26.773739
26.815963
26.836504
26.833766
26.806683
24.351307
24.358672
24.370061
24.385290
24.404097
24.426187
24.451256
24.479007
24.509160
24.541450
24.575632
24.611480
24.648781
24.687344
24.726988
24.767551
24.808879
24.850833
24.893284
24.936115
24.979218
25.022495
25.065857
25.109221
25.152514
25.195668
25.238621
25.281318
25.323709
25.365749
25.407398
25.448617
25.489375
25.529642
25.569391
25.608599
25.647243
25.685304
25.722765
25.759610
25.795824
25.831393
25.866306
25.900551
25.934116
25.966993
25.999171
26.030641
26.061394
26.091420
26.120710
26.149256
26.177048
26.204076
26.230332
26.255805
26.280486
26.304363
26.327427
26.349665
26.371067
26.391620
26.411312
26.430130
26.448061
26.465091
26.481205
26.496390
26.510630
26.523910
26.536214
26.547524
26.557825
26.567098
26.575327
26.582492
26.588576
26.593559
26.597421
26.600144
26.601705
26.602086
26.601264
26.599219
26.595928
26.591371
26.585524
26.578365
26.569872
26.560020
26.548789
26.536156
26.522097
26.506591
26.489616
26.471152
26.451178
26.429679
26.406637
26.382040
26.355878
26.328145
26.298840
26.267970
26.235551
26.201605
26.166168
26.129290
26.091035
26.051491
26.010766
25.968996
25.926346
25.883017
25.839248
25.795320
25.751566
25.708368
25.666163
25.625447
25.586774
25.550754
25.518056
25.489400
25.465550
25.447300
25.435465
25.430856
25.434260
25.446413
25.467972
25.499479
25.541322
25.593701
25.656584
25.729668
25.812342
25.903646
26.002245
26.106390
26.213899
26.322147
26.428077
26.528250
26.618963
26.696438
26.757198
26.798222
26.817606
26.813374
26.785020
24.382888
24.391188
24.403529
24.419705
24.439440
24.462422
24.488339
24.516889
24.547784
24.580760
24.615569
24.651985
24.689800
24.728821
24.768872
24.809793
24.851433
24.893657
24.936338
24.979364
25.022631
25.066042
25.109513
25.152963
25.196322
25.239524
25.282511
25.325228
25.367628
25.409668
25.451309
25.492515
25.533255
25.573500
25.613226
25.652409
25.691027
25.729063
25.766500
25.803322
25.839515
25.875066
25.909963
25.944196
25.977752
26.010623
26.042799
26.074269
26.105026
26.135059
26.164360
26.192920
26.220730
26.247779
26.274057
26.299556
26.324265
26.348172
26.371268
26.393540
26.414977
26.435566
26.455295
26.474151
26.492119
26.509187
26.525339
26.540560
26.554836
26.568149
26.580485
26.591825
26.602153
26.611450
26.619700
26.626883
26.632980
26.637971
26.641837
26.644558
26.646112
26.646479
26.645636
26.643564
26.640238
26.635636
26.629735
26.622513
26.613947
26.604012
26.592686
26.579944
26.565763
26.550121
26.532995
26.514364
26.494207
26.472506
26.449242
26.424400
26.397971
26.369946
26.340323
26.309108
26.276311
26.241954
26.206069
26.168703
26.129919
26.089799
26.048449
26.005999
25.962612
25.918481
25.873842
25.828975
25.784205
25.739911
25.696527
25.654543
25.614510
25.577039
25.542799
25.512510
25.486938
25.466883
25.453163
25.446597
25.447983
25.458070
25.477527
25.506911
25.546625
25.596882
25.657665
25.728685
25.809345
25.898698
25.995415
26.097752
26.203530
26.310122
26.414468
26.513126
26.602389
26.678485
26.737827
26.777722
26.795522
26.789823
26.760325
24.415119
24.424364
24.437660
24.454785
24.475443
24.499312
24.526069
24.555404
24.587028
24.620673
24.656090
24.693055
24.731359
24.770812
24.811242
24.852489
24.894408
24.936866
24.979741
25.022922
25.066311
25.109814
25.153348
25.196839
25.240215
25.283416
25.326385
25.369071
25.411427
25.453414
25.494993
25.536131
25.576798
25.616966
25.656612
25.695714
25.734251
25.772206
25.809562
25.846305
25.882421
25.917898
25.952723
25.986887
26.020378
26.053187
26.085304
26.116720
26.147425
26.177412
26.206669
26.235189
26.262961
26.289976
26.316224
26.341695
26.366378
26.390263
26.413337
26.435591
26.457010
26.477583
26.497297
26.516138
26.534093
26.551147
26.567285
26.582491
26.596751
26.610048
26.622364
26.633684
26.643989
26.653262
26.661483
26.668633
26.674694
26.679645
26.683466
26.686137
26.687635
26.687940
26.687030
26.684881
26.681472
26.676779
26.670780
26.663450
26.654765
26.644701
26.633234
26.620340
26.605995
26.590175
26.572857
26.554018
26.533637
26.511692
26.488166
26.463043
26.436310
26.407959
26.377985
26.346390
26.313183
26.278384