# vtk DataFile Version 3.0
Example structured points dataset
ASCII

DATASET STRUCTURED_POINTS
DIMENSIONS 151 151 2
ORIGIN 0 0 0
SPACING 0.005000 0.005000 0.005000

POINT_DATA 45602
SCALARS Transmembrane_Potential float 1
LOOKUP_TABLE default
19.448292
19.448937
19.450919
19.454247
19.458826
19.464590
19.471517
19.479593
19.488796
19.499098
19.510464
19.522852
19.536217
19.550512
19.565688
19.581697
19.598491
19.616023
19.634250
19.653130
19.672621
19.692688
19.713295
19.734409
19.756000
19.778039
19.800502
19.823363
19.846600
19.870193
19.894123
19.918371
19.942922
19.967761
19.992874
20.018248
20.043873
20.069735
20.095827
20.122140
20.148664
20.175393
20.202318
20.229435
20.256737
20.284220
20.311879
20.339709
20.367707
20.395868
20.424192
20.452675
20.481315
20.510110
20.539058
20.568159
20.597411
20.626815
20.656369
20.686073
20.715927
20.745932
20.776089
20.806399
20.836862
20.867480
20.898252
20.929183
20.960273
20.991525
21.022941
21.054522
21.086271
21.118191
21.150286
21.182558
21.215011
21.247647
21.280469
21.313482
21.346690
21.380097
21.413706
21.447523
21.481549
21.515792
21.550254
21.584942
21.619859
21.655012
21.690403
21.726038
21.761922
21.798062
21.834461
21.871125
21.908058
21.945265
21.982751
22.020522
22.058582
22.096934
22.135584
22.174534
22.213788
22.253349
22.293221
22.333406
22.373904
22.414716
22.455842
22.497282
22.539033
22.581095
22.623463
22.666130
22.709089
22.752333
22.795851
22.839631
22.883660
22.927918
22.972386
23.017039
23.061852
23.106794
23.151828
23.196915
23.242005
23.287043
23.331968
23.376709
23.421183
23.465293
23.508927
23.551955
23.594229
23.635573
23.675787
23.714636
23.751852
23.787132
23.820142
23.850519
23.877879
23.901828
23.921983
23.937987
23.949583
23.956630
23.958999
19.448937
19.448354
19.449414
19.452005
19.455972
19.461219
19.467708
19.475411
19.484295
19.494325
19.505459
19.517650
19.530847
19.544999
19.560054
19.575960
19.592667
19.610126
19.628292
19.647119
19.666568
19.686599
19.707176
19.728267
19.749839
19.771864
19.794315
19.817168
19.840400
19.863990
19.887919
19.912169
19.936723
19.961565
19.986684
20.012064
20.037696
20.063567
20.089667
20.115989
20.142523
20.169262
20.196198
20.223326
20.250639
20.278133
20.305804
20.333645
20.361655
20.389828
20.418164
20.446659
20.475312
20.504119
20.533080
20.562193
20.591458
20.620874
20.650441
20.680158
20.710025
20.740043
20.770213
20.800537
20.831013
20.861644
20.892431
20.923375
20.954480
20.985747
21.017177
21.048774
21.080539
21.112475
21.144587
21.176876
21.209346
21.242000
21.274842
21.307874
21.341102
21.374530
21.408162
21.442002
21.476053
21.510320
21.544809
21.579524
21.614471
21.649654
21.685078
21.720746
21.756666
21.792843
21.829283
21.865989
21.902966
21.940221
21.977756
22.015579
22.053694
22.092106
22.130818
22.169833
22.209156
22.248791
22.288740
22.329007
22.369592
22.410496
22.451719
22.493260
22.535120
22.577296
22.619784
22.662578
22.705671
22.749055
22.792721
22.836658
22.880851
22.925282
22.969931
23.014775
23.059788
23.104939
23.150194
23.195510
23.240841
23.286130
23.331318
23.376331
23.421089
23.465493
23.509432
23.552774
23.595368
23.637039
23.677583
23.716760
23.754297
23.789880
23.823161
23.853760
23.881269
23.905261
23.925320
23.941038
23.952117
23.958346
23.959405
19.450918
19.449414
19.449661
19.451530
19.454877
19.459605
19.465660
19.472997
19.481574
19.491343
19.502255
19.514256
19.527290
19.541303
19.556238
19.572040
19.588658
19.606039
19.624137
19.642906
19.662304
19.682292
19.702831
19.723888
19.745432
19.767433
19.789864
19.812700
19.835917
19.859495
19.883415
19.907657
19.932204
19.957043
19.982159
20.007539
20.033170
20.059042
20.085145
20.111470
20.138008
20.164751
20.191693
20.218826
20.246146
20.273648
20.301326
20.329176
20.357193
20.385376
20.413721
20.442226
20.470889
20.499706
20.528677
20.557801
20.587077
20.616505
20.646083
20.675812
20.705692
20.735723
20.765906
20.796242
20.826733
20.857378
20.888178
20.919138
20.950258
20.981540
21.012987
21.044600
21.076382
21.108335
21.140465
21.172773
21.205263
21.237937
21.270799
21.303854
21.337104
21.370556
21.404212
21.438077
21.472155
21.506449
21.540967
21.575713
21.610692
21.645908
21.681367
21.717072
21.753031
21.789248
21.825730
21.862481
21.899505
21.936808
21.974396
22.012274
22.050446
22.088919
22.127694
22.166777
22.206171
22.245880
22.285908
22.326257
22.366929
22.407924
22.449242
22.490885
22.532851
22.575139
22.617743
22.660660
22.703882
22.747401
22.791208
22.835293
22.879640
22.924232
22.969050
23.014069
23.059264
23.104605
23.150057
23.195578
23.241120
23.286627
23.332039
23.377284
23.422279
23.466925
23.511109
23.554699
23.597544
23.639465
23.680255
23.719673
23.757438
23.793230
23.826690
23.857419
23.884988
23.908946
23.928848
23.944256
23.954860
23.960419
23.960601
19.454246
19.452004
19.451529
19.452726
19.455485
19.459718
19.465357
19.472345
19.480627
19.490145
19.500841
19.512656
19.525529
19.539401
19.554211
19.569904
19.586424
19.603720
19.621740
19.640440
19.659776
19.679708
19.700197
19.721210
19.742714
19.764679
19.787078
19.809885
19.833077
19.856633
19.880532
19.904757
19.929290
19.954115
19.979220
20.004591
20.030214
20.056080
20.082178
20.108499
20.135035
20.161777
20.188718
20.215852
20.243174
20.270678
20.298359
20.326213
20.354235
20.382423
20.410775
20.439286
20.467956
20.496781
20.525760
20.554893
20.584178
20.613616
20.643205
20.672944
20.702835
20.732878
20.763074
20.793423
20.823927
20.854585
20.885401
20.916375
20.947511
20.978809
21.010272
21.041902
21.073702
21.105675
21.137824
21.170152
21.202663
21.235358
21.268243
21.301320
21.334596
21.368073
21.401755
21.435647
21.469753
21.504078
21.538627
21.573406
21.608419
21.643670
21.679165
21.714909
21.750909
21.787169
21.823695
21.860492
21.897566
21.934920
21.972561
22.010496
22.048728
22.087262
22.126102
22.165253
22.204718
22.244503
22.284609
22.325041
22.365799
22.406884
22.448298
22.490040
22.532110
22.574506
22.617224
22.660258
22.703603
22.747251
22.791193
22.835417
22.879910
22.924652
22.969625
23.014806
23.060168
23.105682
23.151311
23.197013
23.242740
23.288437
23.334042
23.379483
23.424675
23.469518
23.513899
23.557684
23.600720
23.642827
23.683796
23.723380
23.761295
23.797215
23.830770
23.861548
23.889104
23.912966
23.932676
23.947780
23.957978
23.963004
23.962549
19.458823
19.455969
19.454875
19.455484
19.457719
19.461499
19.466754
19.473414
19.481415
19.490691
19.501176
19.512805
19.525514
19.539238
19.553917
19.569491
19.585903
19.603099
19.621030
19.639648
19.658909
19.678771
19.699197
19.720152
19.741602
19.763518
19.785872
19.808639
19.831794
19.855316
19.879184
19.903381
19.927889
19.952692
19.977776
20.003128
20.028736
20.054587
20.080673
20.106983
20.133510
20.160244
20.187179
20.214308
20.241627
20.269128
20.296807
20.324660
20.352683
20.380873
20.409227
20.437742
20.466415
20.495244
20.524230
20.553369
20.582662
20.612108
20.641705
20.671453
20.701354
20.731408
20.761616
20.791977
20.822492
20.853164
20.883994
20.914983
20.946134
20.977449
21.008928
21.040576
21.072394
21.104387
21.136556
21.168905
21.201436
21.234154
21.267062
21.300165
21.333466
21.366969
21.400679
21.434599
21.468735
21.503092
21.537674
21.572486
21.607534
21.642822
21.678355
21.714140
21.750182
21.786486
21.823058
21.859903
21.897026
21.934433
21.972129
22.010121
22.048413
22.087009
22.125915
22.165134
22.204671
22.244530
22.284715
22.325228
22.366071
22.407244
22.448751
22.490590
22.532761
22.575262
22.618089
22.661236
22.704699
22.748470
22.792539
22.836895
22.881522
22.926404
22.971521
23.016850
23.062364
23.108033
23.153820
23.199683
23.245572
23.291434
23.337204
23.382810
23.428164
23.473166
23.517702
23.561637
23.604816
23.647057
23.688146
23.727835
23.765835
23.801815
23.835398
23.866163
23.893650
23.917378
23.936878
23.951698
23.961553
23.966140
23.965194
19.464586
19.461216
19.459602
19.459716
19.461498
19.464879
19.469785
19.476142
19.483877
19.492918
19.503195
19.514637
19.527176
19.540746
19.555283
19.570725
19.587016
19.604101
19.621928
19.640449
19.659619
19.679398
19.699746
19.720628
19.742012
19.763865
19.786162
19.808875
19.831981
19.855457
19.879283
19.903441
19.927913
19.952684
19.977738
20.003062
20.028645
20.054474
20.080540
20.106832
20.133342
20.160061
20.186984
20.214103
20.241411
20.268904
20.296577
20.324424
20.352444
20.380631
20.408983
20.437497
20.466171
20.495002
20.523991
20.553134
20.582431
20.611882
20.641485
20.671241
20.701151
20.731214
20.761431
20.791802
20.822330
20.853014
20.883857
20.914861
20.946026
20.977356
21.008852
21.040517
21.072354
21.104366
21.136555
21.168924
21.201477
21.234218
21.267151
21.300278
21.333605
21.367135
21.400873
21.434823
21.468989
21.503378
21.537994
21.572841
21.607924
21.643249
21.678822
21.714648
21.750733
21.787082
21.823700
21.860593
21.897766
21.935226
21.972978
22.011027
22.049378
22.088036
22.127006
22.166293
22.205901
22.245835
22.286096
22.326688
22.367614
22.408874
22.450471
22.492404
22.534672
22.577273
22.620204
22.663459
22.707034
22.750921
22.795109
22.839587
22.884340
22.929350
22.974599
23.020064
23.065716
23.111524
23.157451
23.203455
23.249486
23.295489
23.341399
23.387141
23.432627
23.477756
23.522412
23.566458
23.609739
23.652068
23.693230
23.732974
23.771008
23.806997
23.840557
23.871262
23.898643
23.922213
23.941498
23.956059
23.965610
23.969820
23.968482
19.471511
19.467703
19.465655
19.465354
19.466751
19.469784
19.474377
19.480454
19.487939
19.496753
19.506823
19.518075
19.530438
19.543844
19.558228
19.573528
19.589685
19.606643
19.624351
19.642761
19.661826
19.681507
19.701763
19.722558
19.743860
19.765638
19.787864
19.810510
19.833554
19.856973
19.880745
19.904854
19.929280
19.954007
19.979022
20.004310
20.029859
20.055657
20.081694
20.107960
20.134446
20.161145
20.188048
20.215150
20.242442
20.269922
20.297582
20.325420
20.353431
20.381610
20.409956
20.438466
20.467136
20.495966
20.524954
20.554098
20.583396
20.612849
20.642457
20.672218
20.702134
20.732204
20.762428
20.792809
20.823346
20.854042
20.884897
20.915913
20.947092
20.978436
21.009948
21.041630
21.073485
21.105515
21.137723
21.170113
21.202688
21.235452
21.268408
21.301560
21.334913
21.368470
21.402235
21.436215
21.470412
21.504833
21.539482
21.574363
21.609483
21.644846
21.680459
21.716326
21.752453
21.788846
21.825509
21.862450
21.899674
21.937186
21.974993
22.013098
22.051508
22.090227
22.129261
22.168615
22.208292
22.248297
22.288632
22.329302
22.370307
22.411651
22.453335
22.495357
22.537718
22.580414
22.623443
22.666801
22.710481
22.754476
22.798775
22.843366
22.888235
22.933364
22.978734
23.024321
23.070096
23.116028
23.162079
23.208205
23.254359
23.300482
23.346508
23.392361
23.437952
23.483180
23.527925
23.572051
23.615398
23.657779
23.698976
23.738736
23.776764
23.812722
23.846223
23.876835
23.904087
23.927487
23.946558
23.960885
23.970148
23.974024
23.972368
19.479585
19.475403
19.472991
19.472340
19.473411
19.476139
19.480453
19.486274
19.493521
19.502115
19.511979
19.523038
19.535220
19.548454
19.562675
19.577819
19.593829
19.610647
19.628222
19.646506
19.665452
19.685020
19.705169
19.725864
19.747072
19.768760
19.790902
19.813469
19.836439
19.859788
19.883496
19.907543
19.931912
19.956587
19.981553
20.006795
20.032301
20.058060
20.084060
20.110293
20.136748
20.163418
20.190295
20.217372
20.244643
20.272103
20.299747
20.327569
20.355565
20.383733
20.412068
20.440569
20.469232
20.498057
20.527040
20.556180
20.585477
20.614930
20.644539
20.674302
20.704221
20.734295
20.764526
20.794913
20.825458
20.856163
20.887028
20.918055
20.949246
20.980604
21.012131
21.043828
21.075699
21.107746
21.139973
21.172382
21.204978
21.237764
21.270743
21.303919
21.337297
21.370880
21.404674
21.438682
21.472910
21.507362
21.542043
21.576959
21.612114
21.647515
21.683166
21.719073
21.755242
21.791678
21.828387
21.865376
21.902649
21.940212
21.978071
22.016231
22.054698
22.093477
22.132573
22.171991
22.211735
22.251809
22.292215
22.332959
22.374042
22.415466
22.457231
22.499338
22.541786
22.584572
22.627695
22.671148
22.714927
22.759022
22.803423
22.848118
22.893093
22.938331
22.983810
23.029506
23.075391
23.121431
23.167590
23.213823
23.260081
23.306304
23.352426
23.398368
23.444041
23.489342
23.534151
23.578329
23.621714
23.664116
23.705318
23.745063
23.783055
23.818954
23.852370
23.882868
23.909977
23.933204
23.952067
23.966174
23.975159
23.978742
23.976826
19.488785
19.484285
19.481566
19.480620
19.481410
19.483873
19.487936
19.493519
19.500542
19.508922
19.518582
19.529446
19.541440
19.554494
19.568541
19.583520
19.599370
19.616036
19.633465
19.651609
19.670423
19.689864
19.709893
19.730474
19.751573
19.773160
19.795205
19.817681
19.840565
19.863834
19.887465
19.911441
19.935743
19.960355
19.985262
20.010449
20.035903
20.061614
20.087570
20.113761
20.140178
20.166812
20.193656
20.220702
20.247946
20.275380
20.303000
20.330800
20.358778
20.386928
20.415249
20.443736
20.472388
20.501202
20.530176
20.559310
20.588602
20.618052
20.647658
20.677420
20.707339
20.737415
20.767649
20.798040
20.828591
20.859302
20.890175
20.921211
20.952413
20.983783
21.015322
21.047032
21.078918
21.110981
21.143225
21.175653
21.208269
21.241075
21.274075
21.307274
21.340676
21.374285
21.408105
21.442141
21.476398
21.510880
21.545593
21.580542
21.615732
21.651168
21.686857
21.722803
21.759012
21.795490
21.832244
21.869278
21.906598
21.944211
21.982120
22.020334
22.058856
22.097692
22.136848
22.176327
22.216134
22.256273
22.296748
22.337563
22.378719
22.420217
22.462060
22.504247
22.546777
22.589648
22.632857
22.676399
22.720268
22.764455
22.808950
22.853741
22.898812
22.944147
22.989724
23.035517
23.081498
23.127634
23.173887
23.220211
23.266556
23.312862
23.359059
23.405071
23.450806
23.496159
23.541009
23.585216
23.628614
23.671015
23.712197
23.751905
23.789839
23.825659
23.858972
23.889344
23.916302
23.939357
23.958026
23.971920
23.980645
23.983983
23.981857
19.499084
19.494313
19.491332
19.490136
19.490684
19.492913
19.496749
19.502113
19.508921
19.517094
19.526552
19.537218
19.549019
19.561886
19.575752
19.590554
19.606234
19.622736
19.640007
19.657999
19.676668
19.695970
19.715866
19.736321
19.757300
19.778772
19.800709
19.823083
19.845869
19.869046
19.892591
19.916485
19.940710
19.965249
19.990087
20.015210
20.040605
20.066259
20.092162
20.118303
20.144674
20.171265
20.198069
20.225079
20.252288
20.279690
20.307280
20.335054
20.363007
20.391135
20.419435
20.447904
20.476539
20.505339
20.534301
20.563424
20.592707
20.622149
20.651749
20.681507
20.711423
20.741498
20.771731
20.802124
20.832678
20.863393
20.894271
20.925314
20.956524
20.987903
21.019452
21.051174
21.083073
21.115150
21.147410
21.179854
21.212487
21.245312
21.278332
21.311552
21.344977
21.378610
21.412455
21.446517
21.480801
21.515312
21.550055
21.585035
21.620258
21.655729
21.691453
21.727436
21.763684
21.800203
21.836998
21.874076
21.911441
21.949100
21.987059
22.025323
22.063898
22.102788
22.142000
22.181537
22.221404
22.261605
22.302145
22.343026
22.384250
22.425819
22.467734
22.509995
22.552601
22.595551
22.638840
22.682464
22.726415
22.770686
22.815267
22.860144
22.905303
22.950724
22.996387
23.042265
23.088331
23.134549
23.180882
23.227283
23.273699
23.320071
23.366328
23.412393
23.458172
23.503559
23.548431
23.592646
23.636040
23.678420
23.719565
23.759218
23.797079
23.832805
23.866005
23.896244
23.923050
23.945938
23.964429
23.978115
23.986621
23.989777
23.987484
19.510445
19.505443
19.502241
19.500830
19.501167
19.503188
19.506818
19.511976
19.518581
19.526551
19.535808
19.546275
19.557881
19.570555
19.584232
19.598850
19.614351
19.630678
19.647780
19.665610
19.684122
19.703274
19.723026
19.743343
19.764190
19.785537
19.807354
19.829614
19.852293
19.875367
19.898815
19.922617
19.946755
19.971212
19.995973
20.021023
20.046349
20.071938
20.097780
20.123864
20.150181
20.176722
20.203479
20.230445
20.257613
20.284977
20.312533
20.340274
20.368197
20.396297
20.424571
20.453017
20.481631
20.510412
20.539357
20.568465
20.597734
20.627164
20.656755
20.686505
20.716415
20.746485
20.776715
20.807106
20.837659
20.868375
20.899256
20.930303
20.961518
20.992903
21.024460
21.056192
21.088101
21.120190
21.152463
21.184921
21.217569
21.250411
21.283449
21.316689
21.350134
21.383788
21.417656
21.451742
21.486052
21.520590
21.555361
21.590371
21.625624
21.661127
21.696884
21.732903
21.769187
21.805744
21.842579
21.879697
21.917105
21.954808
21.992813
22.031125
22.069749
22.108690
22.147954
22.187545
22.227469
22.267729
22.308329
22.349271
22.390558
22.432192
22.474174
22.516504
22.559181
22.602203
22.645565
22.689262
22.733289
22.777637
22.822295
22.867249
22.912485
22.957982
23.003721
23.049674
23.095812
23.142102
23.188501
23.234964
23.281438
23.327861
23.374165
23.420266
23.466074
23.511479
23.556357
23.600565
23.643938
23.686284
23.727378
23.766963
23.804740
23.840363
23.873445
23.903549
23.930207
23.952933
23.971262
23.984758
23.993105
23.996140
23.993706
19.522828
19.517629
19.514239
19.512642
19.512794
19.514628
19.518068
19.523034
19.529444
19.537216
19.546275
19.556544
19.567951
19.580428
19.593911
19.608338
19.623651
19.639796
19.656721
19.674379
19.692724
19.711715
19.731313
19.751481
19.772186
19.793397
19.815084
19.837221
19.859781
19.882743
19.906084
19.929785
19.953828
19.978194
20.002868
20.027836
20.053085
20.078602
20.104375
20.130395
20.156651
20.183134
20.209837
20.236752
20.263873
20.291193
20.318707
20.346409
20.374296
20.402363
20.430607
20.459024
20.487613
20.516369
20.545292
20.574381
20.603632
20.633047
20.662624
20.692362
20.722261
20.752323
20.782546
20.812932
20.843481
20.874196
20.905076
20.936124
20.967341
20.998729
21.030292
21.062030
21.093947
21.126045
21.158328
21.190798
21.223459
21.256315
21.289369
21.322626
21.356088
21.389761
21.423650
21.457758
21.492091
21.526654
21.561450
21.596487
21.631768
21.667301
21.703090
21.739141
21.775459
21.812051
21.848922
21.886078
21.923526
21.961270
21.999318
22.037673
22.076343
22.115331
22.154644
22.194287
22.234263
22.274576
22.315231
22.356230
22.397576
22.439270
22.481314
22.523706
22.566447
22.609533
22.652961
22.696726
22.740821
22.785237
22.829964
22.874986
22.920289
22.965854
23.011658
23.057676
23.103876
23.150224
23.196677
23.243191
23.289710
23.336173
23.382508
23.428634
23.474456
23.519865
23.564736
23.608925
23.652266
23.694566
23.735599
23.775107
23.812792
23.848309
23.881270
23.911243
23.937757
23.960331
23.978506
23.991845
24.000084
24.003004
24.000435
19.536188
19.530822
19.527269
19.525512
19.525500
19.527165
19.530430
19.535215
19.541437
19.549018
19.557880
19.567951
19.579159
19.591437
19.604722
19.618952
19.634072
19.650027
19.666767
19.684244
19.702414
19.721236
19.740671
19.760681
19.781235
19.802301
19.823849
19.845852
19.868286
19.891126
19.914352
19.937942
19.961879
19.986146
20.010726
20.035604
20.060768
20.086204
20.111901
20.137848
20.164036
20.190455
20.217097
20.243955
20.271022
20.298291
20.325758
20.353416
20.381261
20.409289
20.437497
20.465880
20.494437
20.523165
20.552062
20.581126
20.610356
20.639751
20.669309
20.699031
20.728916
20.758965
20.789178
20.819555
20.850097
20.880806
20.911682
20.942727
20.973943
21.005333
21.036897
21.068639
21.100560
21.132664
21.164955
21.197434
21.230105
21.262973
21.296040
21.329310
21.362788
21.396478
21.430384
21.464512
21.498865
21.533449
21.568268
21.603329
21.638637
21.674196
21.710013
21.746093
21.782442
21.819066
21.855971
21.893162
21.930646
21.968428
22.006514
22.044910
22.083622
22.122654
22.162012
22.201700
22.241724
22.282086
22.322792
22.363842
22.405241
22.446990
22.489090
22.531539
22.574337
22.617482
22.660970
22.704795
22.748950
22.793426
22.838212
22.883295
22.928657
22.974279
23.020140
23.066212
23.112463
23.158858
23.205356
23.251909
23.298462
23.344953
23.391309
23.437446
23.483271
23.528673
23.573526
23.617687
23.660986
23.703230
23.744194
23.783620
23.821209
23.856619
23.889461
23.919305
23.945684
23.968116
23.986145
23.999359
24.007490
24.010269
24.007576
19.550476
19.544968
19.541277
19.539380
19.539222
19.540733
19.543835
19.548448
19.554490
19.561885
19.570555
19.580429
19.591438
19.603515
19.616599
19.630629
19.645551
19.661311
19.677860
19.695151
19.713139
19.731784
19.751047
19.770892
19.791287
19.812199
19.833599
19.855460
19.877758
19.900469
19.923570
19.947042
19.970867
19.995025
20.019503
20.044283
20.069354
20.094702
20.120315
20.146183
20.172296
20.198643
20.225218
20.252012
20.279019
20.306232
20.333644
20.361252
20.389050
20.417034
20.445199
20.473544
20.502065
20.530759
20.559625
20.588660
20.617863
20.647233
20.676769
20.706470
20.736337
20.766370
20.796568
20.826932
20.857463
20.888162
20.919031
20.950070
20.981282
21.012669
21.044231
21.075973
21.107896
21.140004
21.172298
21.204783
21.237462
21.270337
21.303414
21.336696
21.370186
21.403890
21.437811
21.471955
21.506325
21.540928
21.575767
21.610850
21.646180
21.681763
21.717604
21.753710
21.790087
21.826740
21.863675
21.900898
21.938414
21.976230
22.014351
22.052784
22.091533
22.130605
22.170003
22.209734
22.249800
22.290207
22.330957
22.372055
22.413502
22.455300
22.497449
22.539948
22.582798
22.625995
22.669536
22.713413
22.757621
22.802150
22.846988
22.892122
22.937535
22.983207
23.029114
23.075230
23.121523
23.167956
23.214488
23.261070
23.307647
23.354155
23.400520
23.446660
23.492478
23.537864
23.582691
23.626814
23.670064
23.712246
23.753137
23.792477
23.829969
23.865271
23.897997
23.927717
23.953967
23.976269
23.994161
24.007267
24.015257
24.017889
24.015093
19.565645
19.560017
19.556207
19.554187
19.553898
19.555268
19.558218
19.562668
19.568538
19.575751
19.584233
19.593913
19.604723
19.616600
19.629481
19.643310
19.658031
19.673593
19.689946
19.707044
19.724844
19.743306
19.762392
19.782065
19.802292
19.823043
19.844289
19.866001
19.888156
19.910729
19.933698
19.957044
19.980748
20.004791
20.029158
20.053834
20.078805
20.104057
20.129580
20.155361
20.181391
20.207661
20.234162
20.260886
20.287826
20.314976
20.342329
20.369880
20.397625
20.425559
20.453678
20.481978
20.510458
20.539113
20.567942
20.596943
20.626115
20.655456
20.684965
20.714642
20.744486
20.774498
20.804677
20.835024
20.865541
20.896227
20.927084
20.958114
20.989317
21.020697
21.052255
21.083993
21.115915
21.148022
21.180318
21.212805
21.245487
21.278368
21.311451
21.344741
21.378241
21.411955
21.445888
21.480044
21.514429
21.549047
21.583904
21.619004
21.654353
21.689956
21.725819
21.761948
21.798349
21.835027
21.871988
21.909239
21.946784
21.984630
22.022783
22.061248
22.100031
22.139138
22.178572
22.218339
22.258444
22.298890
22.339682
22.380821
22.422310
22.464150
22.506343
22.548887
22.591783
22.635025
22.678611
22.722535
22.766788
22.811362
22.856245
22.901422
22.946877
22.992590
23.038535
23.084687
23.131012
23.177475
23.224032
23.270634
23.317225
23.363740
23.410107
23.456240
23.502043
23.547406
23.592199
23.636277
23.679472
23.721588
23.762402
23.801656
23.839051
23.874248
23.906860
23.936461
23.962589
23.984770
24.002540
24.015528
24.023372
24.025889
24.023014
19.581646
19.575916
19.572004
19.569875
19.569468
19.570708
19.573516
19.577812
19.583516
19.590554
19.598852
19.608341
19.618955
19.630632
19.643312
19.656938
19.671457
19.686817
19.702971
19.719874
19.737482
19.755756
19.774658
19.794153
19.814208
19.834791
19.855875
19.877432
19.899436
19.921864
19.944695
19.967908
19.991484
20.015405
20.039655
20.064219
20.089083
20.114233
20.139658
20.165346
20.191288
20.217473
20.243894
20.270542
20.297409
20.324490
20.351777
20.379267
20.406953
20.434831
20.462898
20.491149
20.519581
20.548192
20.576980
20.605943
20.635078
20.664385
20.693863
20.723510
20.753327
20.783314
20.813471
20.843797
20.874294
20.904963
20.935805
20.966821
20.998013
21.029383
21.060932
21.092664
21.124579
21.156682
21.188975
21.221462
21.254145
21.287028
21.320114
21.353408
21.386913
21.420634
21.454575
21.488742
21.523138
21.557768
21.592637
21.627752
21.663116
21.698737
21.734618
21.770767
21.807188
21.843887
21.880871
21.918145
21.955715
21.993587
22.031768
22.070261
22.109073
22.148210
22.187675
22.227475
22.267614
22.308094
22.348921
22.390096
22.431622
22.473500
22.515731
22.558314
22.601248
22.644530
22.688154
22.732117
22.776409
22.821021
22.865941
22.911155
22.956644
23.002388
23.048364
23.094544
23.140894
23.187377
23.233950
23.280564
23.327161
23.373676
23.420036
23.466156
23.511937
23.557268
23.602022
23.646051
23.689186
23.731234
23.771971
23.811137
23.848436
23.883530
23.916033
23.945521
23.971533
23.993599
24.011265
24.024127
24.031864
24.034325
24.031390
19.598430
19.592615
19.588615
19.586390
19.585876
19.586996
19.589671
19.593820
19.599366
19.606234
19.614353
19.623656
19.634077
19.645557
19.658036
19.671460
19.685775
19.700933
19.716886
19.733590
19.751003
19.769085
19.787800
19.807113
19.826990
19.847401
19.868317
19.889712
19.911560
19.933838
19.956524
19.979597
20.003039
20.026831
20.050958
20.075403
20.100154
20.125195
20.150516
20.176105
20.201952
20.228047
20.254381
20.280946
20.307735
20.334741
20.361958
20.389380
20.417001
20.444818
20.472827
20.501023
20.529404
20.557966
20.586708
20.615627
20.644721
20.673989
20.703431
20.733045
20.762830
20.792788
20.822917
20.853218
20.883692
20.914340
20.945162
20.976161
21.007337
21.038692
21.070229
21.101950
21.133856
21.165952
21.198239
21.230721
21.263400
21.296281
21.329367
21.362662
21.396169
21.429894
21.463840
21.498013
21.532416
21.567054
21.601933
21.637059
21.672436
21.708069
21.743965
21.780129
21.816566
21.853283
21.890286
21.927580
21.965171
22.003065
22.041268
22.079785
22.118622
22.157785
22.197277
22.237105
22.277272
22.317782
22.358638
22.399844
22.441401
22.483311
22.525575
22.568190
22.611157
22.654471
22.698129
22.742124
22.786448
22.831091
22.876041
22.921283
22.966799
23.012569
23.058568
23.104768
23.151134
23.197630
23.244212
23.290829
23.337425
23.383934
23.430281
23.476380
23.522133
23.567428
23.612137
23.656113
23.699187
23.741165
23.781823
23.820902
23.858108
23.893101
23.925501
23.954882
23.980787
24.002745
24.020312
24.033068
24.040755
24.043172
24.040171
19.615953
19.610066
19.605989
19.603679
19.603068
19.604077
19.606627
19.610637
19.616031
19.622736
19.630682
19.639802
19.650035
19.661320
19.673600
19.686823
19.700937
19.715892
19.731644
19.748148
19.765363
19.783251
19.801775
19.820901
19.840597
19.860831
19.881576
19.902805
19.924492
19.946614
19.969149
19.992077
20.015379
20.039036
20.063033
20.087354
20.111985
20.136912
20.162123
20.187607
20.213353
20.239352
20.265593
20.292070
20.318775
20.345700
20.372840
20.400189
20.427741
20.455492
20.483437
20.511573
20.539897
20.568405
20.597096
20.625966
20.655014
20.684240
20.713640
20.743216
20.772965
20.802889
20.832986
20.863258
20.893705
20.924327
20.955126
20.986102
21.017259
21.048596
21.080117
21.111823
21.143716
21.175800
21.208078
21.240551
21.273223
21.306099
21.339180
21.372473
21.405979
21.439703
21.473651
21.507825
21.542232
21.576875
21.611761
21.646893
21.682278
21.717921
21.753827
21.790002
21.826452
21.863183
21.900200
21.937510
21.975118
22.013029
22.051251
22.089788
22.128646
22.167829
22.207344
22.247194
22.287385
22.327919
22.368800
22.410032
22.451615
22.493551
22.535841
22.578483
22.621477
22.664818
22.708502
22.752523
22.796873
22.841540
22.886513
22.931777
22.977314
23.023102
23.069117
23.115329
23.161705
23.208207
23.254791
23.301406
23.347994
23.394489
23.440816
23.486889
23.532609
23.577864
23.622525
23.666446
23.709457
23.751363
23.791942
23.830936
23.868051
23.902949
23.935251
23.964532
23.990337
24.012196
24.029665
24.042348
24.049981
24.052315
24.049248
19.634168
19.628221
19.624079
19.621693
19.620993
19.621900
19.624332
19.628211
19.633460
19.640008
19.647786
19.656730
19.666778
19.677872
19.689957
19.702981
19.716894
19.731648
19.747198
19.763502
19.780519
19.798211
19.816543
19.835480
19.854991
19.875045
19.895615
19.916672
19.938194
19.960155
19.982535
20.005313
20.028470
20.051988
20.075850
20.100041
20.124547
20.149354
20.174449
20.199822
20.225462
20.251358
20.277502
20.303885
20.330500
20.357340
20.384397
20.411667
20.439144
20.466824
20.494701
20.522772
20.551033
20.579483
20.608117
20.636934
20.665932
20.695109
20.724464
20.753996
20.783705
20.813591
20.843652
20.873890
20.904305
20.934897
20.965668
20.996619
21.027752
21.059067
21.090568
21.122255
21.154131
21.186200
21.218463
21.250924
21.283586
21.316452
21.349526
21.382812
21.416312
21.450033
21.483978
21.518151
21.552557
21.587202
21.622089
21.657225
21.692614
21.728263
21.764175
21.800358
21.836817
21.873558
21.910585
21.947906
21.985526
22.023452
22.061687
22.100240
22.139113
22.178313
22.217845
22.257714
22.297923
22.338476
22.379378
22.420629
22.462233
22.504190
22.546501
22.589165
22.632179
22.675541
22.719246
22.763287
22.807655
22.852341
22.897331
22.942610
22.988161
23.033960
23.079984
23.126202
23.172581
23.219083
23.265663
23.312269
23.358844
23.405320
23.451622
23.497664
23.543347
23.588559
23.633170
23.677032
23.719978
23.761813
23.802314
23.841226
23.878253
23.913061
23.945268
23.974455
24.000167
24.021937
24.039314
24.051936
24.059473
24.061714
24.058597
19.653034
19.647037
19.642838
19.640385
19.639605
19.640417
19.642739
19.646493
19.651604
19.658001
19.665617
19.674390
19.684258
19.695166
19.707060
19.719889
19.733603
19.748157
19.763507
19.779611
19.796430
19.813926
19.832064
19.850812
19.870136
19.890007
19.910398
19.931282
19.952634
19.974431
19.996651
20.019274
20.042282
20.065655
20.089377
20.113434
20.137809
20.162491
20.187466
20.212723
20.238251
20.264040
20.290080
20.316365
20.342884
20.369633
20.396603
20.423789
20.451186
20.478789
20.506593
20.534594
20.562788
20.591174
20.619747
20.648506
20.677448
20.706573
20.735878
20.765363
20.795027
20.824869
20.854890
20.885090
20.915468
20.946027
20.976766
21.007687
21.038792
21.070081
21.101556
21.133221
21.165077
21.197126
21.229372
21.261817
21.294464
21.327316
21.360378
21.393653
21.427145
21.460858
21.494796
21.528964
21.563367
21.598008
21.632894
21.668029
21.703419
21.739069
21.774984
21.811171
21.847634
21.884380
21.921414
21.958742
21.996371
22.034305
22.072551
22.111113
22.149998
22.189210
22.228755
22.268637
22.308860
22.349428