# vtk DataFile Version 3.0
Example structured points dataset
ASCII

DATASET STRUCTURED_POINTS
DIMENSIONS 151 151 2
ORIGIN 0 0 0
SPACING 0.005000 0.005000 0.005000

POINT_DATA 45602
SCALARS Transmembrane_Potential float 1
LOOKUP_TABLE default
21.716525
21.717465
21.720335
21.725149
21.731805
21.740232
21.750400
21.762282
21.775847
21.791049
21.807837
21.826149
21.845918
21.867074
21.889545
21.913257
21.938137
21.964112
21.991113
22.019072
22.047925
22.077610
22.108070
22.139248
22.171093
22.203558
22.236596
22.270165
22.304225
22.338740
22.373676
22.409001
22.444685
22.480701
22.517025
22.553633
22.590504
22.627617
22.664955
22.702501
22.740241
22.778160
22.816244
22.854484
22.892867
22.931385
22.970030
23.008791
23.047663
23.086638
23.125713
23.164880
23.204136
23.243476
23.282896
23.322393
23.361965
23.401610
23.441324
23.481106
23.520955
23.560870
23.600850
23.640896
23.681006
23.721180
23.761418
23.801722
23.842094
23.882535
23.923045
23.963626
24.004281
24.045012
24.085824
24.126720
24.167704
24.208779
24.249950
24.291222
24.332603
24.374100
24.415719
24.457467
24.499352
24.541384
24.583573
24.625933
24.668472
24.711204
24.754140
24.797295
24.840686
24.884329
24.928242
24.972442
25.016948
25.061780
25.106960
25.152511
25.198458
25.244826
25.291637
25.338919
25.386699
25.435008
25.483875
25.533332
25.583406
25.634130
25.685535
25.737653
25.790520
25.844169
25.898629
25.953931
26.010106
26.067185
26.125195
26.184166
26.244119
26.305073
26.367042
26.430040
26.494072
26.559138
26.625229
26.692321
26.760380
26.829359
26.899193
26.969798
27.041062
27.112839
27.184947
27.257162
27.329205
27.400741
27.471360
27.540567
27.607778
27.672319
27.733428
27.790268
27.841946
27.887541
27.926153
27.956942
27.979338
27.993014
27.997623
21.717466
21.716647
21.718206
21.721979
21.727781
21.735495
21.745065
21.756447
21.769591
21.784444
21.800941
21.819015
21.838591
21.859593
21.881943
21.905562
21.930373
21.956302
21.983274
22.011221
22.040074
22.069771
22.100251
22.131458
22.163340
22.195846
22.228930
22.262549
22.296663
22.331234
22.366228
22.401613
22.437357
22.473435
22.509821
22.546491
22.583423
22.620598
22.657997
22.695604
22.733405
22.771383
22.809526
22.847823
22.886263
22.924838
22.963537
23.002352
23.041276
23.080303
23.119428
23.158646
23.197950
23.237337
23.276803
23.316345
23.355961
23.395649
23.435405
23.475228
23.515116
23.555068
23.595086
23.635168
23.675313
23.715520
23.755790
23.796125
23.836527
23.876996
23.917533
23.958140
23.998819
24.039573
24.080407
24.121323
24.162325
24.203417
24.244603
24.285888
24.327282
24.368789
24.410417
24.452172
24.494063
24.536099
24.578291
24.620651
24.663190
24.705920
24.748853
24.792003
24.835388
24.879025
24.922930
24.967123
25.011620
25.056442
25.101613
25.147155
25.193094
25.239454
25.286259
25.333536
25.381313
25.429622
25.478492
25.527955
25.578040
25.628779
25.680204
25.732350
25.785251
25.838941
25.893453
25.948816
26.005063
26.062224
26.120331
26.179413
26.239493
26.300591
26.362724
26.425904
26.490140
26.555435
26.621780
26.689154
26.757523
26.826843
26.897052
26.968065
27.039775
27.112035
27.184666
27.257441
27.330083
27.402253
27.473538
27.543435
27.611348
27.676580
27.738342
27.795755
27.847869
27.893692
27.932246
27.962577
27.984042
27.996167
27.998208
21.720341
21.718210
21.718623
21.721398
21.726354
21.733366
21.742355
21.753257
21.766006
21.780533
21.796764
21.814621
21.834023
21.854887
21.877129
21.900667
21.925420
21.951309
21.978257
22.006194
22.035049
22.064758
22.095260
22.126495
22.158411
22.190957
22.224086
22.257753
22.291918
22.326544
22.361594
22.397036
22.432839
22.468977
22.505424
22.542155
22.579149
22.616385
22.653846
22.691515
22.729376
22.767415
22.805619
22.843975
22.882475
22.921108
22.959865
22.998737
23.037718
23.076801
23.115981
23.155252
23.194610
23.234050
23.273567
23.313160
23.352827
23.392564
23.432369
23.472239
23.512173
23.552172
23.592235
23.632361
23.672549
23.712798
23.753109
23.793484
23.833925
23.874432
23.915006
23.955648
23.996361
24.037149
24.078014
24.118961
24.159993
24.201112
24.242324
24.283635
24.325052
24.366581
24.408229
24.450003
24.491911
24.533963
24.576169
24.618543
24.661093
24.703833
24.746774
24.789932
24.833323
24.876964
24.920874
24.965070
25.009569
25.054393
25.099565
25.145109
25.191050
25.237412
25.284220
25.331500
25.379283
25.427598
25.476478
25.525953
25.576054
25.626812
25.678260
25.730435
25.783371
25.837101
25.891660
25.947079
26.003389
26.060624
26.118816
26.177993
26.238181
26.299400
26.361667
26.424998
26.489403
26.554883
26.621431
26.689028
26.757642
26.827227
26.897724
26.969049
27.041093
27.113712
27.186725
27.259904
27.332974
27.405593
27.477343
27.547716
27.616107
27.681803
27.743990
27.801752
27.854087
27.899944
27.938288
27.968091
27.988701
27.999564
27.999912
21.725162
21.721991
21.721405
21.723269
21.727438
21.733792
21.742238
21.752693
21.765074
21.779301
21.795286
21.812944
21.832185
21.852921
21.875064
21.898525
21.923221
21.949070
21.975993
22.003917
22.032771
22.062488
22.093004
22.124263
22.156208
22.188788
22.221955
22.255665
22.289876
22.324549
22.359650
22.395145
22.431003
22.467197
22.503701
22.540490
22.577542
22.614838
22.652359
22.690087
22.728009
22.766107
22.804370
22.842787
22.881346
22.920039
22.958855
22.997786
23.036825
23.075966
23.115204
23.154533
23.193947
23.233442
23.273016
23.312664
23.352386
23.392177
23.432035
23.471958
23.511945
23.551996
23.592110
23.632286
23.672523
23.712821
23.753181
23.793604
23.834092
23.874644
23.915262
23.955948
23.996704
24.037533
24.078440
24.119426
24.160495
24.201651
24.242898
24.284244
24.325694
24.367255
24.408933
24.450735
24.492670
24.534748
24.576979
24.619375
24.661946
24.704705
24.747664
24.790840
24.834247
24.877904
24.921827
24.966034
25.010544
25.055379
25.100562
25.146116
25.192067
25.238438
25.285255
25.332546
25.380340
25.428669
25.477563
25.527054
25.577173
25.627952
25.679425
25.731629
25.784598
25.838366
25.892968
25.948435
26.004801
26.062100
26.120363
26.179621
26.239898
26.301215
26.363593
26.427045
26.491584
26.557211
26.623918
26.691687
26.760487
26.830273
26.900985
26.972540
27.044826
27.117699
27.190977
27.264434
27.337792
27.410705
27.482753
27.553423
27.622098
27.688058
27.750464
27.808371
27.860739
27.906472
27.944501
27.973766
27.993645
28.003502
28.002632
21.731828
21.727803
21.726371
21.727448
21.730924
21.736690
21.744645
21.754693
21.766738
21.780687
21.796445
21.813917
21.833006
21.853619
21.875662
21.899045
21.923681
21.949485
21.976377
22.004280
22.033124
22.062839
22.093362
22.124634
22.156599
22.189204
22.222400
22.256143
22.290392
22.325106
22.360250
22.395790
22.431696
22.467940
22.504494
22.541336
22.578442
22.615792
22.653369
22.691154
22.729131
22.767287
22.805608
22.844083
22.882700
22.921451
22.960324
22.999314
23.038411
23.077611
23.116908
23.156294
23.195766
23.235320
23.274951
23.314658
23.354437
23.394285
23.434199
23.474179
23.514223
23.554330
23.594499
23.634730
23.675021
23.715372
23.755786
23.796262
23.836802
23.877405
23.918073
23.958809
23.999614
24.040492
24.081445
24.122477
24.163590
24.204789
24.246080
24.287467
24.328958
24.370557
24.412272
24.454110
24.496079
24.538191
24.580454
24.622880
24.665480
24.708265
24.751250
24.794450
24.837881
24.881559
24.925502
24.969727
25.014255
25.059108
25.104308
25.149878
25.195843
25.242228
25.289059
25.336364
25.384174
25.432519
25.481430
25.530938
25.581075
25.631875
25.683372
25.735603
25.788602
25.842402
25.897040
25.952547
26.008960
26.066311
26.124633
26.183955
26.244301
26.305695
26.368158
26.431704
26.496345
26.562082
26.628907
26.696801
26.765734
26.835663
26.906526
26.978238
27.050685
27.123723
27.197169
27.270797
27.344324
27.417404
27.489611
27.560425
27.629226
27.695280
27.757737
27.815626
27.867880
27.913376
27.951025
27.979772
27.999023
28.008036
28.006233
21.740268
21.735530
21.733397
21.733816
21.736703
21.741961
21.749483
21.759167
21.770909
21.784604
21.800149
21.817443
21.836385
21.856875
21.878817
21.902116
21.926684
21.952434
21.979284
22.007157
22.035978
22.065681
22.096199
22.127472
22.159444
22.192062
22.225277
22.259043
22.293318
22.328062
22.363239
22.398816
22.434761
22.471046
22.507643
22.544530
22.581683
22.619082
22.656708
22.694543
22.732572
22.770780
22.809155
22.847684
22.886356
22.925161
22.964091
23.003137
23.042291
23.081548
23.120901
23.160345
23.199875
23.239487
23.279177
23.318941
23.358778
23.398683
23.438656
23.478694
23.518796
23.558961
23.599187
23.639475
23.679823
23.720232
23.760702
23.801234
23.841829
23.882486
23.923209
23.963998
24.004857
24.045787
24.086791
24.127872
24.169035
24.210283
24.251621
24.293055
24.334590
24.376233
24.417989
24.459868
24.501878
24.544028
24.586328
24.628788
24.671421
24.714238
24.757254
24.800484
24.843942
24.887646
24.931613
24.975861
25.020411
25.065285
25.110505
25.156093
25.202075
25.248476
25.295324
25.342646
25.390472
25.438833
25.487760
25.537283
25.587437
25.638256
25.689774
25.742026
25.795048
25.848874
25.903539
25.959078
26.015526
26.072916
26.131280
26.190647
26.251043
26.312492
26.375016
26.438628
26.503340
26.569150
26.636053
26.704029
26.773049
26.843069
26.914024
26.985827
27.058364
27.131490
27.205021
27.278727
27.352326
27.425465
27.497713
27.568549
27.637346
27.703364
27.765739
27.823486
27.875522
27.920705
27.957935
27.986198
28.004865
28.013136
28.010593
21.750451
21.745116
21.742402
21.742278
21.744675
21.749500
21.756649
21.766012
21.777480
21.790942
21.806288
21.823412
21.842208
21.862573
21.884407
21.907616
21.932106
21.957791
21.984587
22.012416
22.041203
22.070879
22.101378
22.132639
22.164605
22.197223
22.230443
22.264219
22.298508
22.333271
22.368470
22.404073
22.440046
22.476362
22.512994
22.549917
22.587108
22.624547
22.662215
22.700093
22.738167
22.776422
22.814845
22.853422
22.892144
22.931000
22.969981
23.009079
23.048287
23.087598
23.127005
23.166503
23.206089
23.245757
23.285503
23.325324
23.365217
23.405180
23.445210
23.485306
23.525466
23.565688
23.605972
23.646317
23.686724
23.727191
23.767719
23.808307
23.848958
23.889672
23.930451
23.971296
24.012210
24.053194
24.094251
24.135385
24.176599
24.217898
24.259286
24.300769
24.342351
24.384039
24.425841
24.467764
24.509816
24.552007
24.594346
24.636844
24.679512
24.722364
24.765414
24.808675
24.852163
24.895894
24.939887
24.984160
25.028734
25.073630
25.118870
25.164478
25.210477
25.256894
25.303758
25.351095
25.398936
25.447310
25.496249
25.545786
25.595953
25.646785
25.698318
25.750585
25.803621
25.857463
25.912146
25.967705
26.024175
26.081589
26.139979
26.199372
26.259798
26.321280
26.383839
26.447490
26.512240
26.578090
26.645034
26.713052
26.782116
26.852177
26.923171
26.995007
27.067572
27.140719
27.214263
27.287971
27.361557
27.434665
27.506860
27.577619
27.646312
27.712192
27.774387
27.831904
27.883648
27.928472
27.965263
27.993072
28.011156
28.018763
28.015623
21.762352
21.756516
21.753323
21.752753
21.754743
21.759204
21.766033
21.775116
21.786338
21.799586
21.814745
21.831703
21.850354
21.870590
21.892311
21.915419
21.939822
21.965430
21.992159
22.019930
22.048668
22.078303
22.108768
22.140003
22.171949
22.204552
22.237764
22.271536
22.305826
22.340595
22.375804
22.411420
22.447411
22.483747
22.520402
22.557351
22.594570
22.632040
22.669741
22.707655
22.745766
22.784059
22.822522
22.861141
22.899906
22.938806
22.977833
23.016979
23.056234
23.095593
23.135050
23.174600
23.214237
23.253957
23.293756
23.333631
23.373578
23.413596
23.453681
23.493833
23.534048
23.574327
23.614667
23.655069
23.695532
23.736056
23.776640
23.817285
23.857992
23.898763
23.939597
23.980498
24.021466
24.062504
24.103615
24.144802
24.186068
24.227419
24.268857
24.310389
24.352019
24.393754
24.435602
24.477569
24.519664
24.561896
24.604275
24.646810
24.689516
24.732403
24.775486
24.818778
24.862296
24.906055
24.950073
24.994371
25.038968
25.083885
25.129144
25.174768
25.220783
25.267215
25.314092
25.361441
25.409292
25.457675
25.506622
25.556166
25.606341
25.657180
25.708719
25.760991
25.814033
25.867880
25.922570
25.978136
26.034613
26.092035
26.150431
26.209833
26.270269
26.331761
26.394331
26.457991
26.522750
26.588608
26.655558
26.723582
26.792647
26.862705
26.933689
27.005508
27.078047
27.151158
27.224652
27.298296
27.371799
27.444802
27.516870
27.587476
27.655987
27.721653
27.783596
27.840820
27.892225
27.936665
27.973014
28.000380
28.017878
28.024906
28.021284
21.775937
21.769682
21.766095
21.765157
21.766811
21.770969
21.777524
21.786362
21.797365
21.810416
21.825397
21.842195
21.860699
21.880803
21.902404
21.925403
21.949707
21.975226
22.001875
22.029574
22.058249
22.087828
22.118245
22.149438
22.181349
22.213924
22.247112
22.280867
22.315145
22.349905
22.385111
22.420727
22.456723
22.493067
22.529734
22.566697
22.603934
22.641425
22.679148
22.717088
22.755226
22.793549
22.832044
22.870696
22.909497
22.948435
22.987500
23.026685
23.065982
23.105384
23.144886
23.184480
23.224163
23.263930
23.303777
23.343701
23.383699
23.423767
23.463904
23.504107
23.544375
23.584706
23.625100
23.665556
23.706073
23.746650
23.787288
23.827988
23.868750
23.909574
23.950463
23.991417
24.032438
24.073528
24.114691
24.155930
24.197248
24.238648
24.280135
24.321714
24.363391
24.405173
24.447065
24.489075
24.531212
24.573483
24.615900
24.658474
24.701215
24.744135
24.787249
24.830571
24.874116
24.917901
24.961944
25.006264
25.050880
25.095814
25.141089
25.186727
25.232755
25.279198
25.326083
25.373438
25.421293
25.469680
25.518629
25.568174
25.618348
25.669185
25.720719
25.772987
25.826023
25.879865
25.934548
25.990107
26.046576
26.103987
26.162374
26.221765
26.282190
26.343670
26.406224
26.469867
26.534606
26.600442
26.667367
26.735361
26.804390
26.874403
26.945334
27.017091
27.089557
27.162582
27.235975
27.309498
27.382859
27.455699
27.527580
27.597975
27.666247
27.731643
27.793284
27.850172
27.901210
27.945255
27.981177
28.008089
28.025042
28.031597
28.027594
21.791163
21.784559
21.780646
21.779409
21.780786
21.784690
21.791013
21.799637
21.810443
21.823311
21.838124
21.854765
21.873123
21.893092
21.914566
21.937447
21.961642
21.987060
22.013616
22.041231
22.069828
22.099337
22.129691
22.160828
22.192689
22.225220
22.258371
22.292093
22.326344
22.361083
22.396271
22.431875
22.467862
22.504201
22.540867
22.577833
22.615076
22.652575
22.690311
22.728265
22.766421
22.804764
22.843280
22.881958
22.920785
22.959750
22.998846
23.038063
23.077394
23.116832
23.156370
23.196003
23.235725
23.275533
23.315423
23.355390
23.395431
23.435545
23.475727
23.515977
23.556293
23.596673
23.637116
23.677621
23.718187
23.758814
23.799503
23.840254
23.881066
23.921941
23.962879
24.003883
24.044954
24.086095
24.127307
24.168595
24.209960
24.251406
24.292940
24.334564
24.376286
24.418110
24.460044
24.502094
24.544269
24.586578
24.629031
24.671639
24.714411
24.757362
24.800504
24.843852
24.887421
24.931229
24.975292
25.019629
25.064261
25.109208
25.154494
25.200141
25.246176
25.292623
25.339510
25.386865
25.434719
25.483101
25.532045
25.581582
25.631745
25.682569
25.734090
25.786342
25.839362
25.893185
25.947848
26.003383
26.059827
26.117212
26.175571
26.234933
26.295325
26.356769
26.419284
26.482884
26.547578
26.613364
26.680233
26.748163
26.817121
26.887054
26.957895
27.029551
27.101903
27.174798
27.248043
27.321399
27.394573
27.467204
27.538854
27.608992
27.676981
27.742067
27.803373
27.859900
27.910556
27.954205
27.989728
28.016180
28.032687
28.038911
28.034606
21.807977
21.801083
21.796905
21.795423
21.796574
21.800266
21.806389
21.814826
21.825455
21.838155
21.852807
21.869295
21.887507
21.907336
21.928679
21.951435
21.975511
22.000817
22.027269
22.054786
22.083293
22.112718
22.142995
22.174061
22.205857
22.238330
22.271428
22.305104
22.339313
22.374016
22.409173
22.444750
22.480714
22.517036
22.553688
22.590644
22.627881
22.665377
22.703113
22.741070
22.779233
22.817585
22.856113
22.894804
22.933647
22.972632
23.011749
23.050989
23.090345
23.129810
23.169376
23.209039
23.248794
23.288635
23.328559
23.368562
23.408641
23.448793
23.489015
23.529306
23.569664
23.610086
23.650571
23.691120
23.731731
23.772403
23.813137
23.853933
23.894791
23.935711
23.976695
24.017745
24.058862
24.100048
24.141304
24.182635
24.224044
24.265534
24.307109
24.348775
24.390536
24.432399
24.474369
24.516456
24.558666
24.601008
24.643492
24.686129
24.728929
24.771905
24.815071
24.858440
24.902030
24.945854
24.989932
25.034281
25.078923
25.123878
25.169169
25.214819
25.260853
25.307297
25.354179
25.401527
25.449370
25.497741
25.546669
25.596188
25.646330
25.697132
25.748628
25.800853
25.853843
25.907634
25.962260
26.017757
26.074161
26.131504
26.189817
26.249129
26.309467
26.370854
26.433307
26.496842
26.561464
26.627173
26.693957
26.761794
26.830649
26.900470
26.971189
27.042709
27.114910
27.187638
27.260697
27.333850
27.406800
27.479187
27.550570
27.620417
27.688092
27.752842
27.813792
27.869948
27.920219
27.963475
27.998626
28.024651
28.040852
28.046869
28.042302
21.826316
21.819186
21.814792
21.813112
21.814077
21.817593
21.823547
21.831819
21.842287
21.854831
21.869330
21.885669
21.903736
21.923423
21.944629
21.967253
21.991202
22.016388
22.042724
22.070132
22.098535
22.127863
22.158049
22.189031
22.220749
22.253149
22.286180
22.319795
22.353949
22.388601
22.423713
22.459249
22.495178
22.531469
22.568093
22.605026
22.642244
22.679724
22.717448
22.755397
22.793554
22.831903
22.870432
22.909126
22.947976
22.986969
23.026097
23.065350
23.104721
23.144203
23.183789
23.223474
23.263251
23.303118
23.343068
23.383099
23.423207
23.463390
23.503645
23.543969
23.584360
23.624818
23.665340
23.705925
23.746574
23.787285
23.828058
23.868892
23.909789
23.950750
23.991774
24.032864
24.074020
24.115245
24.156541
24.197910
24.239357
24.280884
24.322496
24.364197
24.405992
24.447888
24.489891
24.532008
24.574248
24.616617
24.659127
24.701787
24.744609
24.787606
24.830789
24.874175
24.917777
24.961612
25.005697
25.050053
25.094698
25.139654
25.184943
25.230588
25.276614
25.323047
25.369916
25.417248
25.465072
25.513420
25.562323
25.611813
25.661925
25.712693
25.764152
25.816337
25.869284
25.923027
25.977604
26.033049
26.089396
26.146679
26.204927
26.264171
26.324436
26.385744
26.448116
26.511562
26.576089
26.641694
26.708367
26.776084
26.844809
26.914491
26.985057
27.056411
27.128430
27.200959
27.273804
27.346723
27.419421
27.491534
27.562623
27.632155
27.699495
27.763895
27.824481
27.880262
27.930153
27.973025
28.007815
28.033486
28.049487
28.055267
28.050435
21.846116
21.838794
21.834227
21.832387
21.833201
21.836570
21.842379
21.850506
21.860830
21.873228
21.887581
21.903775
21.921697
21.941242
21.962307
21.984794
22.008609
22.033665
22.059877
22.087165
22.115454
22.144673
22.174755
22.205639
22.237265
22.269579
22.302530
22.336069
22.370154
22.404741
22.439794
22.475276
22.511155
22.547401
22.583985
22.620881
22.658067
22.695519
22.733218
22.771146
22.809285
22.847620
22.886137
22.924824
22.963668
23.002658
23.041786
23.081041
23.120418
23.159907
23.199503
23.239199
23.278990
23.318872
23.358840
23.398890
23.439019
23.479224
23.519502
23.559851
23.600269
23.640754
23.681305
23.721920
23.762598
23.803340
23.844144
23.885011
23.925941
23.966934
24.007991
24.049114
24.090303
24.131560
24.172888
24.214290
24.255768
24.297326
24.338968
24.380698
24.422521
24.464444
24.506473
24.548614
24.590876
24.633266
24.675795
24.718473
24.761311
24.804320
24.847515
24.890908
24.934516
24.978355
25.022442
25.066796
25.111437
25.156385
25.201664
25.247295
25.293305
25.339720
25.386566
25.433872
25.481667
25.529983
25.578850
25.628301
25.678371
25.729094
25.780503
25.832635
25.885524
25.939208
25.993720
26.049097
26.105372
26.162577
26.220744
26.279901
26.340074
26.401286
26.463554
26.526889
26.591298
26.656777
26.723316
26.790889
26.859461
26.928977
26.999364
27.070525
27.142336
27.214642
27.287247
27.359909
27.432331
27.504149
27.574924
27.644125
27.711119
27.775161
27.835380
27.890790
27.940311
27.982818
28.017247
28.042642
28.058400
28.063859
28.058785
21.867304
21.859829
21.855126
21.853160
21.853852
21.857099
21.862784
21.870784
21.880975
21.893238
21.907453
21.923505
21.941285
21.960687
21.981608
22.003954
22.027630
22.052549
22.078628
22.105786
22.133950
22.163050
22.193017
22.223791
22.255313
22.287528
22.320385
22.353836
22.387837
22.422346
22.457326
22.492741
22.528557
22.564744
22.601273
22.638120
22.675260
22.712671
22.750332
22.788226
22.826335
22.864643
22.903137
22.941803
22.980630
23.019606
23.058723
23.097970
23.137340
23.176826
23.216420
23.256117
23.295912
23.335800
23.375775
23.415835
23.455975
23.496193
23.536486
23.576851
23.617286
23.657790
23.698360
23.738996
23.779696
23.820461
23.861289
23.902180
23.943134
23.984152
24.025234
24.066382
24.107596
24.148879
24.190232
24.231659
24.273161
24.314742
24.356406
24.398158
24.440003
24.481945
24.523992
24.566150
24.608427
24.650831
24.693372
24.736059
24.778905
24.821920
24.865117
24.908512
24.952118
24.995953
25.040033
25.084378
25.129005
25.173937
25.219197
25.264807
25.310792
25.357177
25.403991
25.451261
25.499017
25.547290
25.596111
25.645513
25.695529
25.746193
25.797540
25.849605
25.902425
25.956034
26.010468
26.065762
26.121948
26.179060
26.237128
26.296181
26.356245
26.417341
26.479486
26.542691
26.606961
26.672294
26.738677
26.806086
26.874481
26.943808
27.013993
27.084939
27.156522
27.228585
27.300930
27.373315
27.445442
27.516949
27.587397
27.656258
27.722902
27.786582
27.846435
27.901479
27.950641
27.992803
28.026885
28.052030
28.067441
28.072580
28.067312
21.889809
21.882215
21.877406
21.875341
21.875936
21.879083
21.884662
21.892549
21.902621
21.914758
21.928841
21.944757
21.962397
21.981656
22.002433
22.024634
22.048167
22.072943
22.098882
22.125903
22.153934
22.182903
22.212745
22.243398
22.274803
22.306907
22.339658
22.373008
22.406913
22.441331
22.476225
22.511558
22.547297
22.583412
22.619875
22.656659
22.693740
22.731096
22.768707
22.806553
22.844619
22.882888
22.921346
22.959980
22.998777
23.037728
23.076821
23.116048
23.155400
23.194871
23.234454
23.274142
23.313929
23.353812
23.393784
23.433843
23.473985
23.514206
23.554503
23.594874
23.635317
23.675830
23.716411
23.757059
23.797772
23.838550
23.879393
23.920299
23.961269
24.002303
24.043402
24.084567
24.125798
24.167098
24.208468
24.249910
24.291428
24.333025
24.374704
24.416470
24.458327
24.500281
24.542338
24.584504
24.626789
24.669199
24.711743
24.754433
24.797277
24.840290
24.883483
24.926870
24.970466
25.014288
25.058353
25.102678
25.147284
25.192191
25.237423
25.283001
25.328951
25.375298
25.422069
25.469293
25.517000
25.565219
25.613983
25.663322
25.713272
25.763866
25.815139
25.867126
25.919862
25.973384
26.027725
26.082920
26.139002
26.196006
26.253960
26.312893
26.372830
26.433792
26.495795
26.558852
26.622966
26.688134
26.754342
26.821566
26.889764
26.958883
27.028849
27.099562
27.170898
27.242699
27.314768
27.386861
27.458681
27.529867
27.599982
27.668498
27.734787
27.798107
27.857597
27.912282
27.961095
28.002928
28.036697
28.061549
28.076613
28.081520
28.076112
21.913557
21.905872
21.900984
21.898844
21.899362
21.902427
21.907916
21.915705
21.925669
21.937689
21.951647
21.967432
21.984935
22.004052
22.024686
22.046740
22.070126
22.094756
22.120548
22.147426
22.175315
22.204145
22.233852
22.264374
22.295653
22.327634
22.360267
22.393504
22.427300
22.461615
22.496410
22.531649
22.567298
22.603328
22.639710
22.676418
22.713427
22.750715
22.788263
22.826050
22.864060
22.902277
22.940686
22.979275
23.018031
23.056942
23.096001
23.135196
23.174519
23.213964
23.253523
23.293189
23.332958
23.372825
23.412784
23.452831
23.492963
23.533177
23.573468
23.613836
23.654276
23.694789
23.735370
23.776020
23.816737
23.857519
23.898366
23.939278
23.980255
24.021297
24.062403
24.103576
24.144815
24.186123
24.227501
24.268951
24.310476
24.352080
24.393765
24.435535
24.477396
24.519353
24.561412
24.603580
24.645862
24.688269
24.730809
24.773491
24.816327
24.859328
24.902507
24.945878
24.989456
25.033255
25.077295
25.121592
25.166168
25.211041
25.256234
25.301771
25.347676
25.393974
25.440693
25.487861
25.535507
25.583662
25.632356
25.681622
25.731494
25.782006
25.833193
25.885088
25.937728
25.991148
26.045381
26.100464
26.156430
26.213310
26.271135
26.329931
26.389725
26.450537
26.512383
26.575275
26.639216
26.704201
26.770217
26.837237
26.905223
26.974118
27.043847
27.114312
27.185386
27.256911
27.328690
27.400480
27.471986
27.542845
27.612621
27.680790
27.746725
27.809689
27.868824
27.923160
27.971635
28.013150
28.046644
28.071174
28.086007
28.090820
28.085303
21.938474
21.930723
21.925778
21.923584
21.924044
21.927042
21.932456
21.940157
21.950024
21.961936
21.975777
21.991436
22.008805
22.027784
22.048274
22.070182
22.093418
22.117898
22.143540
22.170268
22.198008
22.226693
22.256257
22.286639
22.317781
22.349630
22.382134
22.415246
22.448923
22.483122
22.517806
22.552938
22.588485
22.624418
22.660706
22.697325
22.734249
22.771457
22.808928
22.846643
22.884584
22.922736
22.961084
22.999615
23.038317
23.077179
23.116189
23.155340
23.194622
23.234028
23.273552
23.313186
23.352925
23.392764
23.432698
23.472723
23.512834
23.553029
23.593305
23.633658
23.674086
23.714587
23.755159
23.795801
23.836510
23.877287
23.918130
23.959038
24.000012
24.041051
24.082155
24.123326
24.164564
24.205870
24.247247
24.288696
24.330219
24.371820
24.413501
24.455268
24.497124
24.539076
24.581127
24.623285
24.665558
24.707952
24.750478
24.793145
24.835963
24.878943
24.922099
24.965445
25.008993
25.052762
25.096768
25.141028
25.185562
25.230391
25.275537
25.321022
25.366872
25.413112
25.459768
25.506869
25.554443
25.602521
25.651135
25.700317
25.750101
25.800519
25.851606
25.903397
25.955927
26.009232
26.063346
26.118304
26.174138
26.230880
26.288560
26.347206
26.406842
26.467489
26.529163
26.591875
26.655626
26.720413
26.786221
26.853024
26.920782
26.989439
27.058919
27.129121
27.199921
27.271159
27.342640
27.414120
27.485305
27.555832
27.625268
27.693090
27.758675
27.821290
27.880081
27.934082
27.982233
28.023439
28.056668
28.080927
28.095662
28.100377
28.094723
21.964488
21.956693
21.951711
21.949479
21.949896
21.952842
21.958192
21.965819
21.975598
21.987410
22.001140
22.016679
22.033920
22.052762
22.073110
22.094872
22.117958
22.142286
22.167774
22.194347
22.221934
22.250467
22.279880
22.310114
22.341111
22.372818
22.405184
22.438162
22.471707
22.505780
22.540341
22.575355
22.610788
22.646611
22.682794
22.719311
22.756138
22.793253
22.830634
22.868264
22.906124
22.944199
22.982473
23.020934
23.059569
23.098367
23.137318
23.176412
23.215642
23.254998
23.294474
23.334064
23.373761
23.413561
23.453458
23.493449
23.533529
23.573695
23.613943
23.654270
23.694675
23.735154
23.775706
23.816329
23.857021
23.897782
23.938609
23.979504
24.020464
24.061491
24.102583
24.143743
24.184970
24.226265
24.267630
24.309068
24.350579
24.392168
24.433837
24.475591
24.517433
24.559368
24.601402
24.643543
24.685795
24.728169
24.770671
24.813313
24.856103
24.899053
24.942177
24.985487
25.028998
25.072726
25.116688
25.160901
25.205384
25.250159
25.295247
25.340671
25.386456
25.432626
25.479209
25.526231
25.573723
25.621716
25.670239
25.719325
25.769007
25.819319
25.870295
25.921970
25.974379
26.027557
26.081539
26.136357
26.192046
26.248637
26.306159
26.364641
26.424106
26.484575
26.546062
26.608578
26.672126
26.736702
26.802289
26.868862
26.936380
27.004785
27.074003
27.143932
27.214448
27.285392
27.356568
27.427733
27.498593
27.568787
27.637883
27.705362
27.770604
27.832878
27.891336
27.945014
27.992860
28.033776
28.066731
28.090805
28.105399
28.109899
28.104112
21.991529
21.983708
21.978705
21.976450
21.976838
21.979745
21.985043
21.992604
22.002305
22.014026
22.027653
22.043077
22.060194
22.078904
22.099113
22.120729
22.143665
22.167839
22.193171
22.219587
22.247016
22.275391
22.304648
22.334727
22.365571
22.397128
22.429346
22.462180
22.495585
22.529521
22.563948
22.598833
22.634141
22.669842
22.705907
22.742311
22.779029
22.816038
22.853318
22.890850
22.928616
22.966601
23.004789
23.043168
23.081724
23.120447
23.159326
23.198351
23.237515
23.276809
23.316225
23.355759
23.395403
23.435152
23.475002
23.514947
23.554983
23.595108
23.635317
23.675608
23.715978
23.756425
23.796946
23.837539
23.878203
23.918937
23.959739
24.000609
24.041546
24.082550
24.123621
24.164758
24.205964
24.247238
24.288582
24.329998
24.371488
24.413055
24.454702
24.496432
24.538250
24.580160
24.622168
24.664281
24.706504
24.748847
24.791316
24.833922
24.876675
24.919586
24.962668
25.005933
25.049397
25.093074
25.136982
25.181137
25.225561
25.270272
25.315292
25.360645
25.406353
25.452444
25.498942
25.545877
25.593276
25.641171
25.689592
25.738571
25.788141
25.838335
25.889189
25.940736
25.993012
26.046051
26.099887
26.154555
26.210086
26.266514
26.323866
26.382171
26.441452
26.501728
26.563016
26.625325
26.688658
26.753009
26.818364
26.884695
26.951961
27.020104
27.089050
27.158699
27.228925
27.299568
27.370434
27.441280
27.511812
27.581674
27.650434
27.717576
27.782482
27.844424
27.902558
27.955925
28.003478
28.044128
28.076819
28.100729
28.115059
28.119345
28.113465
22.019529
22.011699
22.006689
22.004424
22.004794
22.007673
22.012929
22.020435
22.030065
22.041703
22.055234
22.070550
22.087548
22.106130
22.126202
22.147674
22.170461
22.194481
22.219656
22.245913
22.273181
22.301394
22.330490
22.360408
22.391093
22.422492
22.454556
22.487236
22.520492
22.554280
22.588564
22.623309
22.658480
22.694049
22.729985
22.766264
22.802861
22.839753
22.876920
22.914342
22.952003
22.989885
23.027975
23.066259
23.104724
23.143359
23.182153
23.221098
23.260184
23.299404
23.338749
23.378214
23.417793
23.457479
23.497269
23.537157
23.577139
23.617211
23.657371
23.697614
23.737938
23.778340
23.818819
23.859372
23.899997
23.940693
23.981460
24.022294
24.063197
24.104168
24.145206
24.186311
24.227485
24.268728
24.310041
24.351426
24.392885
24.434419
24.476033
24.517730
24.559514
24.601389
24.643362
24.685436
24.727620
24.769922
24.812348
24.854910
24.897616
24.940478
24.983507
25.026718
25.070124
25.113741
25.157585
25.201674
25.246027
25.290664
25.335606
25.380877
25.426500
25.472500
25.518904
25.565740
25.613037
25.660823