# vtk DataFile Version 3.0
Example structured points dataset
ASCII

DATASET STRUCTURED_POINTS
DIMENSIONS 151 151 2
ORIGIN 0 0 0
SPACING 0.005000 0.005000 0.005000

POINT_DATA 45602
SCALARS Transmembrane_Potential float 1
LOOKUP_TABLE default
24.602625
24.603690
24.606954
24.612413
24.619895
24.629232
24.640303
24.652990
24.667171
24.682711
24.699462
24.717265
24.735954
24.755355
24.775291
24.795585
24.816062
24.836552
24.856891
24.876923
24.896501
24.915489
24.933758
24.951191
24.967682
24.983132
24.997452
25.010561
25.022389
25.032870
25.041947
25.049567
25.055682
25.060254
25.063246
25.064624
25.064356
25.062414
25.058777
25.053422
25.046327
25.037470
25.026830
25.014391
25.000136
24.984047
24.966104
24.946283
24.924568
24.900941
24.875381
24.847867
24.818370
24.786866
24.753329
24.717735
24.680057
24.640263
24.598317
24.554181
24.507823
24.459208
24.408296
24.355045
24.299403
24.241322
24.180753
24.117650
24.051957
23.983615
23.912558
23.838716
23.762023
23.682412
23.599809
23.514132
23.425290
23.333189
23.237732
23.138825
23.036363
22.930234
22.820310
22.706457
22.588536
22.466405
22.339914
22.208900
22.073181
21.932559
21.786826
21.635765
21.479151
21.316736
21.148248
20.973387
20.791832
20.603242
20.407260
20.203497
19.991527
19.770879
19.541037
19.301451
19.051530
18.790639
18.518080
18.233078
17.934779
17.622253
17.294492
16.950402
16.588781
16.208288
15.807429
15.384548
14.937821
14.465236
13.964550
13.433236
12.868414
12.266789
11.624558
10.937231
10.199266
9.403341
8.538919
7.589126
6.523242
5.276778
3.696975
1.396587
-2.605211
-10.409529
-22.950656
-35.120623
-44.593270
-51.599449
-56.723752
-60.470686
-63.220646
-65.249677
-66.755356
-67.878290
-68.718168
-69.345319
-69.808881
-70.142519
-70.368379
-70.499803
-70.543223
24.603703
24.605406
24.609802
24.616701
24.625835
24.636986
24.649996
24.664726
24.681035
24.698773
24.717780
24.737887
24.758915
24.780684
24.803008
24.825703
24.848589
24.871490
24.894238
24.916674
24.938647
24.960020
24.980661
25.000452
25.019287
25.037067
25.053702
25.069111
25.083225
25.095980
25.107318
25.117187
25.125540
25.132341
25.137553
25.141145
25.143083
25.143344
25.141905
25.138748
25.133849
25.127189
25.118747
25.108509
25.096460
25.082584
25.066860
25.049267
25.029788
25.008408
24.985110
24.959870
24.932663
24.903465
24.872251
24.839000
24.803686
24.766279
24.726742
24.685041
24.641144
24.595018
24.546627
24.495928
24.442873
24.387413
24.329503
24.269098
24.206146
24.140590
24.072364
24.001402
23.927641
23.851015
23.771456
23.688883
23.603209
23.514341
23.422189
23.326660
23.227655
23.125067
23.018771
22.908637
22.794532
22.676319
22.553857
22.426987
22.295534
22.159306
22.018103
21.871719
21.719934
21.562515
21.399199
21.229696
21.053697
20.870875
20.680889
20.483367
20.277903
20.064044
19.841296
19.609132
19.366992
19.114273
18.850313
18.574379
18.285661
17.983283
17.666300
17.333696
16.984356
16.617048
16.230405
15.822929
15.392991
14.938831
14.458536
13.950000
13.410915
12.838762
12.230830
11.584187
10.895536
10.160772
9.373781
8.523155
7.582802
6.484779
5.042804
2.751293
-1.647464
-10.440929
-23.790887
-36.187219
-45.667561
-52.604778
-57.631544
-61.273532
-63.921109
-65.854651
-67.273132
-68.317031
-69.085142
-69.646509
-70.048752
-70.323783
-70.491577
-70.562351
-70.536959
24.607005
24.609840
24.615514
24.623841
24.634572
24.647481
24.662391
24.679136
24.697552
24.717470
24.738714
24.761101
24.784440
24.808539
24.833206
24.858247
24.883478
24.908716
24.933790
24.958537
24.982806
25.006456
25.029356
25.051387
25.072443
25.092424
25.111241
25.128815
25.145076
25.159962
25.173416
25.185386
25.195829
25.204708
25.211989
25.217639
25.221629
25.223935
25.224537
25.223417
25.220553
25.215926
25.209519
25.201318
25.191309
25.179476
25.165799
25.150261
25.132846
25.113540
25.092324
25.069178
25.044078
25.016999
24.987922
24.956824
24.923682
24.888463
24.851135
24.811665
24.770023
24.726178
24.680093
24.631726
24.581032
24.527964
24.472481
24.414536
24.354082
24.291059
24.225407
24.157061
24.085962
24.012046
23.935245
23.855482
23.772671
23.686725
23.597557
23.505076
23.409188
23.309785
23.206749
23.099954
22.989273
22.874574
22.755719
22.632554
22.504909
22.372599
22.235433
22.093210
21.945722
21.792739
21.634007
21.469246
21.298160
21.120436
20.935743
20.743726
20.543989
20.336097
20.119578
19.893929
19.658615
19.413059
19.156630
18.888626
18.608283
18.314774
18.007213
17.684651
17.346049
16.990268
16.616057
16.222059
15.806829
15.368828
14.906418
14.417850
13.901273
13.354772
12.776411
12.164235
11.516091
10.829002
10.097385
9.308219
8.428113
7.369018
5.899195
3.424081
-1.454360
-11.074529
-24.958307
-37.367219
-46.738644
-53.549796
-58.455095
-61.985705
-64.533225
-66.377682
-67.716988
-68.690240
-69.394723
-69.897930
-70.245899
-70.468880
-70.585017
-70.602455
-70.520073
24.612529
24.616801
24.623902
24.633723
24.646072
24.660745
24.677551
24.696302
24.716813
24.738894
24.762350
24.786982
24.812588
24.838963
24.865906
24.893217
24.920705
24.948184
24.975480
25.002428
25.028874
25.054677
25.079706
25.103843
25.126981
25.149021
25.169876
25.189467
25.207727
25.224594
25.240010
25.253928
25.266306
25.277108
25.286299
25.293849
25.299731
25.303923
25.306407
25.307162
25.306170
25.303413
25.298876
25.292547
25.284411
25.274453
25.262655
25.249002
25.233480
25.216073
25.196765
25.175535
25.152361
25.127222
25.100099
25.070969
25.039808
25.006586
24.971271
24.933836
24.894249
24.852480
24.808493
24.762245
24.713695
24.662800
24.609518
24.553806
24.495612
24.434881
24.371554
24.305572
24.236876
24.165405
24.091089
24.013853
23.933615
23.850293
23.763802
23.674055
23.580957
23.484402
23.384276
23.280459
23.172829
23.061259
22.945611
22.825734
22.701462
22.572619
22.439021
22.300476
22.156776
22.007698
21.852993
21.692391
21.525609
21.352346
21.172281
20.985065
20.790314
20.587607
20.376493
20.156490
19.927083
19.687716
19.437777
19.176594
18.903440
18.617533
18.318038
18.004052
17.674598
17.328605
16.964914
16.582285
16.179407
15.754899
15.307307
14.835102
14.336701
13.810499
13.254888
12.668172
12.048221
11.391488
10.690457
9.927258
9.057758
7.972145
6.397699
3.666422
-1.736118
-12.161160
-26.376927
-38.644407
-47.819551
-54.457671
-59.218893
-62.629685
-65.076568
-66.835468
-68.101083
-69.009936
-69.657176
-70.108454
-70.408150
-70.584955
-70.655486
-70.626417
-70.495412
24.620101
24.626023
24.634718
24.646155
24.660206
24.676692
24.695419
24.716184
24.738782
24.763003
24.788635
24.815463
24.843271
24.871846
24.900978
24.930462
24.960100
24.989705
25.019099
25.048117
25.076605
25.104421
25.131435
25.157531
25.182600
25.206547
25.229286
25.250739
25.270841
25.289528
25.306749
25.322455
25.336608
25.349170
25.360110
25.369398
25.377011
25.382928
25.387129
25.389595
25.390311
25.389260
25.386429
25.381806
25.375376
25.367124
25.357037
25.345099
25.331298
25.315619
25.298043
25.278553
25.257129
25.233751
25.208401
25.181055
25.151688
25.120273
25.086782
25.051188
25.013460
24.973566
24.931470
24.887134
24.840517
24.791579
24.740280
24.686574
24.630409
24.571734
24.510493
24.446630
24.380087
24.310800
24.238702
24.163719
24.085774
24.004788
23.920680
23.833360
23.742734
23.648699
23.551145
23.449959
23.345022
23.236208
23.123379
23.006386
22.885069
22.759260
22.628781
22.493443
22.353041
22.207354
22.056138
21.899136
21.736073
21.566657
21.390572
21.207475
21.016988
20.818707
20.612196
20.396991
20.172590
19.938448
19.693969
19.438504
19.171357
18.891780
18.598969
18.292055
17.970095
17.632065
17.276868
16.903338
16.510241
16.096270
15.660047
15.200119
14.714973
14.203041
13.662646
13.091806
12.487697
11.845316
11.154256
10.391018
9.500684
8.353158
6.637637
3.612608
-2.361879
-13.605616
-27.980302
-39.995475
-48.911086
-55.340182
-59.938503
-63.221343
-65.565844
-67.241066
-68.436789
-69.285953
-69.881007
-70.285484
-70.542025
-70.677827
-70.708188
-70.638617
-70.465829
24.629558
24.637287
24.647736
24.660934
24.676795
24.695167
24.715855
24.738648
24.763323
24.789654
24.817413
24.846371
24.876303
24.906986
24.938203
24.969744
25.001408
25.033007
25.064363
25.095308
25.125690
25.155369
25.184215
25.212112
25.238955
25.264649
25.289110
25.312264
25.334043
25.354389
25.373250
25.390582
25.406345
25.420504
25.433028
25.443891
25.453071
25.460547
25.466300
25.470313
25.472572
25.473063
25.471773
25.468689
25.463797
25.457085
25.448540
25.438150
25.425900
25.411776
25.395760
25.377836
25.357986
25.336193
25.312436
25.286691
25.258934
25.229142
25.197288
25.163344
25.127279
25.089062
25.048657
25.006028
24.961139
24.913949
24.864415
24.812493
24.758132
24.701284
24.641896
24.579912
24.515274
24.447919
24.377778
24.304783
24.228859
24.149931
24.067915
23.982723
23.894261
23.802429
23.707123
23.608232
23.505639
23.399217
23.288829
23.174330
23.055566
22.932374
22.804578
22.671992
22.534410
22.391615
22.243370
22.089427
21.929517
21.763351
21.590615
21.410969
21.224046
21.029452
20.826765
20.615527
20.395243
20.165373
19.925335
19.674497
19.412182
19.137661
18.850144
18.548774
18.232624
17.900695
17.551919
17.185154
16.799180
16.392688
15.964282
15.512468
15.035652
14.532097
13.999804
13.436214
12.837502
12.196951
11.501143
10.721110
9.791770
8.563660
6.687057
3.337771
-3.267063
-15.339009
-29.714718
-41.397176
-50.008578
-56.202463
-60.623482
-63.771658
-66.011922
-67.604548
-68.733137
-69.526257
-70.073197
-70.435135
-70.652894
-70.752221
-70.747223
-70.642442
-70.433837
24.640777
24.650437
24.662779
24.677866
24.695645
24.715976
24.738668
24.763499
24.790236
24.818638
24.848466
24.879479
24.911443
24.944129
24.977314
25.010786
25.044343
25.077796
25.110966
25.143688
25.175810
25.207193
25.237711
25.267247
25.295701
25.322978
25.348997
25.373685
25.396977
25.418816
25.439153
25.457944
25.475151
25.490741
25.504685
25.516960
25.527542
25.536411
25.543552
25.548949
25.552587
25.554455
25.554540
25.552828
25.549310
25.543973
25.536805
25.527794
25.516926
25.504186
25.489560
25.473032
25.454585
25.434200
25.411857
25.387535
25.361210
25.332859
25.302457
25.269974
25.235382
25.198647
25.159738
25.118620
25.075256
25.029605
24.981625
24.931271
24.878497
24.823254
24.765491
24.705152
24.642178
24.576506
24.508072
24.436809
24.362644
24.285500
24.205294
24.121940
24.035344
23.945412
23.852039
23.755118
23.654529
23.550147
23.441837
23.329458
23.212860
23.091881
22.966347
22.836069
22.700847
22.560465
22.414694
22.263289
22.105982
21.942485
21.772485
21.595648
21.411613
21.219993
21.020369
20.812285
20.595248
20.368722
20.132130
19.884853
19.626219
19.355498
19.071900
18.774566
18.462569
18.134912
17.790519
17.428229
17.046782
16.644812
16.220840
15.773255
15.300283
14.799907
14.269690
13.706405
13.105200
12.457697
11.747634
10.940891
9.962611
8.643659
6.591139
2.882848
-4.423017
-17.302756
-31.537243
-42.828898
-51.105430
-57.046016
-61.279538
-64.288147
-66.422772
-67.933620
-68.997239
-69.737251
-70.239434
-70.562424
-70.745163
-70.811973
-70.775871
-70.640581
-70.401495
24.653644
24.665336
24.679682
24.696768
24.716554
24.738908
24.763636
24.790510
24.819286
24.849714
24.881543
24.914527
24.948423
24.982998
25.018029
25.053300
25.088611
25.123771
25.158605
25.192949
25.226653
25.259581
25.291607
25.322620
25.352520
25.381215
25.408625
25.434681
25.459320
25.482486
25.504132
25.524216
25.542703
25.559560
25.574761
25.588282
25.600101
25.610202
25.618568
25.625185
25.630041
25.633122
25.634418
25.633917
25.631610
25.627484
25.621529
25.613731
25.604078
25.592557
25.579155
25.563855
25.546640
25.527491
25.506390
25.483316
25.458248
25.431161
25.402029
25.370824
25.337517
25.302079
25.264477
25.224676
25.182638
25.138324
25.091692
25.042700
24.991301
24.937448
24.881088
24.822165
24.760622
24.696398
24.629431
24.559651
24.486989
24.411365
24.332698
24.250903
24.165891
24.077565
23.985823
23.890555
23.791644
23.688965
23.582387
23.471770
23.356965
23.237810
23.114129
22.985737
22.852434
22.714010
22.570236
22.420866
22.265632
22.104245
21.936396
21.761753
21.579959
21.390625
21.193330
20.987617
20.772990
20.548917
20.314821
20.070080
19.814013
19.545881
19.264882
18.970143
18.660725
18.335606
17.993673
17.633710
17.254388
16.854251
16.431701
15.984967
15.512050
15.010610
14.477767
13.909661
13.300500
12.640388
11.910407
11.071484
10.038874
8.621863
6.376325
2.261815
-5.828039
-19.443393
-33.413657
-44.273327
-52.194872
-57.870513
-61.909989
-64.775951
-66.804227
-68.234165
-69.234682
-69.924062
-70.384329
-70.671447
-70.822430
-70.860200
-70.796766
-70.635161
-70.370387
24.668038
24.681843
24.698283
24.717452
24.739316
24.763740
24.790525
24.819435
24.850220
24.882621
24.916379
24.951243
24.986967
25.023316
25.060066
25.097002
25.133925
25.170646
25.206992
25.242803
25.277931
25.312243
25.345617
25.377943
25.409124
25.439072
25.467710
25.494969
25.520789
25.545118
25.567910
25.589124
25.608727
25.626689
25.642983
25.657588
25.670485
25.681656
25.691087
25.698764
25.704676
25.708811
25.711159
25.711710
25.710453
25.707378
25.702473
25.695728
25.687130
25.676667
25.664325
25.650087
25.633937
25.615859
25.595833
25.573839
25.549855
25.523857
25.495819
25.465715
25.433517
25.399194
25.362714
25.324041
25.283138
25.239967
25.194488
25.146658
25.096430
25.043757
24.988585
24.930860
24.870527
24.807525
24.741791
24.673257
24.601849
24.527493
24.450107
24.369609
24.285907
24.198906
24.108502
24.014586
23.917042
23.815748
23.710573
23.601376
23.488007
23.370302
23.248088
23.121181
22.989383
22.852482
22.710248
22.562432
22.408765
22.248961
22.082710
21.909681
21.729510
21.541805
21.346141
21.142055
20.929052
20.706593
20.474094
20.230917
19.976367
19.709687
19.430057
19.136584
18.828295
18.504124
18.162902
17.803343
17.424033
17.023413
16.599750
16.151097
15.675219
15.169476
14.630587
14.054145
13.433523
12.757426
12.004389
11.130308
10.039545
8.515612
6.051084
1.464826
-7.498975
-21.712949
-35.317016
-45.716405
-53.270760
-58.674827
-62.516724
-65.238605
-67.160580
-68.510677
-69.449844
-70.090785
-70.511613
-70.765536
-70.887624
-70.899424
-70.812009
-70.627833
-70.341662
24.683825
24.699809
24.718413
24.739731
24.763723
24.790246
24.819095
24.850027
24.882781
24.917094
24.952705
24.989356
25.026803
25.064810
25.103152
25.141619
25.180014
25.218151
25.255860
25.292985
25.329381
25.364919
25.399481
25.432960
25.465261
25.496301
25.526004
25.554305
25.581145
25.606476
25.630252
25.652436
25.672995
25.691902
25.709131
25.724663
25.738479
25.750563
25.760901
25.769482
25.776295
25.781328
25.784573
25.786019
25.785656
25.783475
25.779466
25.773617
25.765918
25.756354
25.744912
25.731577
25.716334
25.699165
25.680052
25.658973
25.635908
25.610832
25.583720
25.554548
25.523285
25.489901
25.454364
25.416638
25.376688
25.334477
25.289962
25.243101
25.193847
25.142152
25.087965
25.031233
24.971898
24.909901
24.845177
24.777658
24.707273
24.633946
24.557597
24.478143
24.395491
24.309545
24.220203
24.127356
24.030888
23.930677
23.826591
23.718487
23.606214
23.489609
23.368500
23.242702
23.112016
22.976225
22.835097
22.688383
22.535812
22.377098
22.211928
22.039961
21.860832
21.674139
21.479453
21.276308
21.064198
20.842573
20.610831
20.368318
20.114319
19.848057
19.568687
19.275281
18.966822
18.642189
18.300150
17.939345
17.558273
17.155267
16.728455
16.275717
15.794609
15.282230
14.734969
14.147943
13.513766
12.819802
12.041973
11.130536
9.976625
8.331399
5.609531
0.468547
-9.453913
-24.070128
-37.226393
-47.146976
-54.327855
-59.457583
-63.100799
-65.678577
-67.495016
-68.766611
-69.646168
-70.240689
-70.624293
-70.847397
-70.943120
-70.931674
-70.823259
-70.619848
-70.316093
24.700861
24.719078
24.739898
24.763410
24.789562
24.818200
24.849107
24.882032
24.916711
24.952873
24.990256
25.028603
25.067667
25.107216
25.147028
25.186895
25.226625
25.266036
25.304963
25.343252
25.380766
25.417377
25.452972
25.487447
25.520713
25.552686
25.583297
25.612482
25.640186
25.666361
25.690965
25.713962
25.735323
25.755019
25.773030
25.789334
25.803915
25.816759
25.827854
25.837187
25.844749
25.850529
25.854519
25.856709
25.857090
25.855654
25.852389
25.847286
25.840331
25.831514
25.820821
25.808237
25.793746
25.777331
25.758973
25.738652
25.716347
25.692034
25.665688
25.637282
25.606788
25.574175
25.539411
25.502463
25.463293
25.421863
25.378131
25.332055
25.283588
25.232683
25.179289
25.123352
25.064814
25.003614
24.939688
24.872970
24.803387
24.730864
24.655321
24.576671
24.494823
24.409680
24.321141
24.229096
24.133430
24.034016
23.930722
23.823404
23.711911
23.596081
23.475738
23.350696
23.220750
23.085682
22.945259
22.799227
22.647317
22.489233
22.324657
22.153242
21.974614
21.788367
21.594065
21.391229
21.179341
20.957832
20.726084
20.483422
20.229112
19.962351
19.682258
19.387864
19.078103
18.751799
18.407659
18.044251
17.659985
17.253085
16.821552
16.363114
15.875156
15.354566
14.797450
14.198495
13.549588
12.836704
12.032781
11.081120
9.856125
8.068941
5.041692
-0.746829
-11.691624
-26.479877
-39.125388
-48.556202
-55.361819
-60.217426
-63.662792
-66.097622
-67.809931
-69.004639
-69.826372
-70.376390
-70.724799
-70.919218
-70.990839
-70.958574
-70.831812
-70.612123
-70.294150
24.718989
24.739481
24.762556
24.788291
24.816620
24.847373
24.880322
24.915207
24.951758
24.989703
25.028778
25.068727
25.109306
25.150285
25.191447
25.232589
25.273522
25.314071
25.354076
25.393388
25.431873
25.469410
25.505888
25.541210
25.575289
25.608045
25.639412
25.669329
25.697744
25.724612
25.749893
25.773553
25.795565
25.815901
25.834543
25.851471
25.866671
25.880128
25.891832
25.901771
25.909935
25.916316
25.920906
25.923696
25.924677
25.923839
25.921173
25.916669
25.910315
25.902099
25.892009
25.880028
25.866141
25.850331
25.832580
25.812867
25.791170
25.767467
25.741731
25.713936
25.684054
25.652053
25.617903
25.581567
25.543010
25.502193
25.459073
25.413609
25.365754
25.315461
25.262676
25.207346
25.149413
25.088817
25.025493
24.959373
24.890386
24.818455
24.743497
24.665426
24.584153
24.499579
24.411601
24.320110
24.224985
24.126100
24.023323
23.916508
23.805504
23.690144
23.570251
23.445633
23.316084
23.181383
23.041295
22.895563
22.743907
22.586028
22.421599
22.250267
22.071652
21.885339
21.690879
21.487780
21.275504
21.053468
20.821036
20.577512
20.322136
20.054073
19.772404
19.476118
19.164102
18.835130
18.487848
18.120753
17.732169
17.320221
16.882801
16.417521
15.921623
15.391817
14.823954
14.212312
13.548022
12.815457
11.983854
10.987779
9.681239
7.728208
4.343514
-2.189198
-14.180924
-28.911707
-41.000633
-49.936939
-56.369075
-60.953130
-64.203019
-66.497018
-68.107152
-69.226852
-69.992613
-70.499986
-70.815089
-70.982771
-71.032326
-70.981412
-70.838661
-70.605308
-70.276060
24.738044
24.760842
24.786199
24.814174
24.844683
24.877541
24.912505
24.949309
24.987677
25.027337
25.068024
25.109485
25.151479
25.193781
25.236179
25.278475
25.320487
25.362046
25.402995
25.443193
25.482512
25.520834
25.558054
25.594079
25.628826
25.662220
25.694198
25.724702
25.753683
25.781099
25.806911
25.831090
25.853608
25.874442
25.893572
25.910983
25.926658
25.940587
25.952758
25.963162
25.971790
25.978633
25.983684
25.986934
25.988374
25.987996
25.985791
25.981748
25.975856
25.968102
25.958474
25.946956
25.933533
25.918187
25.900900
25.881652
25.860420
25.837180
25.811908
25.784577
25.755157
25.723619
25.689929
25.654052
25.615951
25.575587
25.532920
25.487905
25.440497
25.390644
25.338297
25.283399
25.225894
25.165720
25.102813
25.037102
24.968515
24.896975
24.822400
24.744702
24.663791
24.579567
24.491924
24.400751
24.305927
24.207327
24.104814
23.998242
23.887454
23.772282
23.652544
23.528047
23.398583
23.263927
23.123836
22.978047
22.826275
22.668213
22.503529
22.331861
22.152821
21.965980
21.770874
21.566996
21.353796
21.130671
20.896966
20.651962
20.394867
20.124814
19.840847
19.541918
19.226871
18.894431
18.543182
18.171553
17.777793
17.359948
16.915823
16.442932
15.938396
15.398764
14.819646
14.194899
13.514785
12.761706
11.900339
10.854856
9.455707
7.312202
3.513076
-3.867283
-16.865749
-31.338575
-42.840806
-51.283285
-57.346671
-61.663635
-64.721659
-66.877727
-68.388101
-69.434901
-70.146615
-70.613167
-70.896748
-71.039485
-71.068819
-71.001201
-70.844557
-70.599837
-70.261867
24.757855
24.782983
24.810636
24.840857
24.873540
24.908481
24.945428
24.984105
25.024234
25.065541
25.107762
25.150648
25.193963
25.237486
25.281011
25.324349
25.367321
25.409767
25.451535
25.492492
25.532513
25.571487
25.609314
25.645907
25.681185
25.715080
25.747530
25.778483
25.807892
25.835717
25.861924
25.886484
25.909371
25.930565
25.950048
25.967804
25.983820
25.998086
26.010591
26.021326
26.030284
26.037455
26.042834
26.046411
26.048179
26.048130
26.046253
26.042539
26.036975
26.029551
26.020252
26.009065
25.995973
25.980957
25.964000
25.945081
25.924177
25.901265
25.876319
25.849312
25.820215
25.788995
25.755621
25.720057
25.682266
25.642209
25.599843
25.555124
25.508005
25.458436
25.406366
25.351739
25.294496
25.234575
25.171910
25.106430
25.038064
24.966732
24.892352
24.814835
24.734088
24.650008
24.562491
24.471423
24.376682
24.278141
24.175659
24.069087
23.958265
23.843022
23.723175
23.598527
23.468864
23.333955
23.193551
23.047384
22.895163
22.736573
22.571275
22.398898
22.219038
22.031256
21.835073
21.629971
21.415381
21.190685
20.955201
20.708183
20.448814
20.176195
19.889340
19.587164
19.268467
18.931924
18.576065
18.199260
17.799697
17.375358
16.923976
16.442975
15.929367
15.379553
14.788898
14.150782
13.454417
12.679826
11.786376
10.686372
9.182888
6.819262
2.532340
-5.810982
-19.680295
-33.737301
-44.636410
-52.590398
-58.292210
-62.348069
-65.218832
-67.240501
-68.653906
-69.630107
-70.289764
-70.717299
-70.971057
-71.090512
-71.101307
-71.018734
-70.850055
-70.595979
-70.251486
24.778249
24.805720
24.835676
24.868138
24.902979
24.939978
24.978870
25.019373
25.061205
25.104091
25.147772
25.192000
25.236545
25.281194
25.325746
25.370018
25.413842
25.457060
25.499530
25.541124
25.581724
25.621226
25.659534
25.696566
25.732247
25.766513
25.799307
25.830578
25.860284
25.888388
25.914858
25.939668
25.962795
25.984219
26.003925
26.021898
26.038127
26.052601
26.065312
26.076252
26.085412
26.092786
26.098367
26.102147
26.104117
26.104270
26.102597
26.099086
26.093727
26.086507
26.077414
26.066431
26.053543
26.038731
26.021977
26.003259
25.982556
25.959842
25.935093
25.908279
25.879371
25.848338
25.815147
25.779761
25.742143
25.702252
25.660045
25.615479
25.568506
25.519075
25.467133
25.412624
25.355488
25.295662
25.233079
25.167669
25.099358
25.028065
24.953706
24.876190
24.795423
24.711303
24.623722
24.532564
24.437706
24.339014
24.236348
24.129556
24.018474
23.902930
23.782735
23.657686
23.527565
23.392135
23.251142
23.104311
22.951346
22.791924
22.625693
22.452271
22.271244
22.082162
21.884533
21.677823
21.461446
21.234760
20.997064
20.747586
20.485486
20.209836
19.919620
19.613712
19.290874
18.949734
18.588778
18.206328
17.800522
17.369282
16.910273
16.420840
15.897897
15.337698
14.735337
14.083624
13.370521
12.573306
11.645230
10.484477
8.860087
6.232421
1.357753
-8.066458
-22.563946
-36.089630
-46.379957
-53.854477
-59.203826
-63.005768
-65.694653
-67.585955
-68.905483
-69.813545
-70.423191
-70.813492
-71.039057
-71.136784
-71.130579
-71.034621
-70.855552
-70.593873
-70.244740
24.799049
24.828872
24.861129
24.895821
24.932799
24.971824
25.012621
25.054900
25.098377
25.142778
25.187845
25.233338
25.279030
25.324715
25.370200
25.415309
25.459881
25.503766
25.546829
25.588949
25.630014
25.669926
25.708597
25.745949
25.781913
25.816428
25.849442
25.880909
25.910789
25.939049
25.965661
25.990598
26.013842
26.035374
26.055181
26.073249
26.089569
26.104132
26.116929
26.127953
26.137197
26.144654
26.150318
26.154181
26.156236
26.156474
26.154886
26.151461
26.146189
26.139056
26.130049
26.119152
26.106350
26.091624
26.074954
26.056319
26.035695
26.013059
25.988384
25.961641
25.932801
25.901830
25.868696
25.833361
25.795787
25.755933
25.713757
25.669212
25.622250
25.572821
25.520868
25.466337
25.409165
25.349290
25.286644
25.221154
25.152744
25.081333
25.006834
24.929158
24.848207
24.763877
24.676057
24.584631
24.489470
24.390440
24.287398
24.180188
24.068645
23.952589
23.831828
23.706153
23.575343
23.439155
23.297330
23.149585
22.995614
22.835086
22.667639
22.492882
22.310390
22.119701
21.920310
21.711662
21.493156
21.264129
21.023861
20.771560
20.506360
20.227305
19.933344
19.623321
19.295958
18.949850
18.583442
18.195014
17.782655
17.344230
16.877346
16.379278
15.846843
15.276134
14.661926
13.996357
13.265935
12.444693
11.478331
10.246971
8.476083
5.523476
-0.059281
-10.658793
-25.468324
-38.382324
-48.065952
-55.072719
-60.080158
-63.636281
-66.149267
-67.914619
-69.143593
-69.986099
-70.547821
-70.902654
-71.101595
-71.179050
-71.157256
-71.049330
-70.861328
-70.593569
-70.241394
24.820086
24.852260
24.886810
24.923715
24.962803
25.003820
25.046479
25.090485
25.135550
25.181404
25.227791
25.274474
25.321236
25.367873
25.414204
25.460060
25.505285
25.549739
25.593295
25.635836
25.677260
25.717476
25.756400
25.793961
25.830096
25.864748
25.897869
25.929418
25.959358
25.987659
26.014296
26.039246
26.062492
26.084018
26.103811
26.121861
26.138159
26.152696
26.165465
26.176461
26.185676
26.193105
26.198740
26.202576
26.204604
26.204816
26.203202
26.199753
26.194456
26.187300
26.178269
26.167349
26.154523
26.139770
26.123073
26.104408
26.083753
26.061083
26.036369
26.009584
25.980696
25.949672
25.916478
25.881077
25.843429
25.803494
25.761226
25.716580
25.669505
25.619951
25.567862
25.513180
25.455843
25.395786
25.332940
25.267232
25.198583
25.126911
25.052130
24.974146
24.892860
24.808165
24.719948
24.628090
24.532462
24.432926
24.329335
24.221531
24.109342
23.992585
23.871064
23.744566
23.612864
23.475710
23.332837
23.183954
23.028746
22.866875
22.697970
22.521631
22.337420
22.144861
21.943432
21.732567
21.511645
21.279990
21.036859
20.781440
20.512838
20.230073
19.932065
19.617627
19.285453
18.934103
18.561985
18.167335
17.748196
17.302387
16.827462
16.320628
15.778598
15.197272
14.571050
13.891279
13.142699
12.295216
11.284777
9.968605
8.018852
4.671798
-1.744957
-13.559765
-28.355991
-40.605771
-49.690443
-56.243141
-60.920283
-64.239355
-66.582865
-68.226972
-69.368891
-70.148511
-70.664423
-70.985533
-71.159360
-71.217916
-71.181832
-71.063213
-70.867567
-70.595045
-70.241181
24.841191
24.875712
24.912542
24.951637
24.992805
25.035777
25.080255
25.125938
25.172539
25.219786
25.267429
25.315235
25.362993
25.410508
25.457605
25.504122
25.549915
25.594848
25.638803
25.681671
25.723357
25.763777
25.802854
25.840523
25.876725
25.911409
25.944533
25.976057
26.005951
26.034187
26.060743
26.085599
26.108739
26.130152
26.149825
26.167750
26.183918
26.198324
26.210961
26.221823
26.230905
26.238200
26.243703
26.247406
26.249304
26.249386
26.247644
26.244067
26.238643
26.231360
26.222203
26.211156
26.198201
26.183320
26.166492
26.147695
26.126904
26.104094
26.079237
26.052303
26.023261
25.992078
25.958717
25.923142
25.885311
25.845183
25.802713
25.757852
25.710552
25.660759
25.608417
25.553466
25.495844
25.435483
25.372314
25.306263
25.237249
25.165189
25.089993
25.011566
24.929807
24.844607
24.755852
24.663419
24.567176
24.466983
24.362687
24.254127
24.141129
24.023506
23.901056
23.773562
23.640789
23.502484
23.358371
23.208154
23.051512
22.888096
22.717526
22.539391
22.353240
22.158584
21.954890
21.741576
21.518006
21.283486
21.037253
20.778471
20.506224
20.219507
19.917217
19.598139
19.260938
18.904137
18.526108
18.125049
17.698966
17.245634
16.762553
16.246854
15.695126
15.103048
14.464574
13.770069
13.002001
12.125019
11.063072
9.646158
7.483484
3.667320
-3.713776
-16.691738
-31.196456
-42.752330
-51.250459
-57.364358
-61.723621
-64.814905
-66.995688
-68.523460
-69.581947
-70.301413
-70.773641
-71.062750
-71.212920
-71.253869
-71.204694
-71.076536
-70.874381
-70.598234
-70.243816
24.862203
24.899061
24.938153
24.979414
25.022630
25.067519
25.113773
25.161086
25.209170
25.257755
25.306593
25.355459
25.404147
25.452470
25.500259
25.547363
25.593643
25.638973
25.683243
25.726351
25.768211
25.808745
25.847883
25.885566
25.921741
25.956362
25.989390
26.020793
26.050543
26.078615
26.104990
26.129653
26.152590
26.173790
26.193244
26.210945
26.226886
26.241062
26.253467
26.264097
26.272947
26.280012
26.285285
26.288760
26.290430
26.290287
26.288320
26.284519
26.278873
26.271367
26.261988
26.250718
26.237540
26.222435
26.205380
26.186353
26.165330
26.142284
26.117186
26.090007
26.060714
26.029272
25.995646
25.959796
25.921682
25.881260
25.838485
25.793309
25.745679
25.695541
25.642839
25.587512
25.529495
25.468722
25.405119
25.338611
25.269117
25.196551
25.120821
25.041830
24.959476
24.873648
24.784228
24.691090
24.594099
24.493112
24.387973
24.278518
24.164568
24.045933
23.922403
23.793758
23.659756
23.520138
23.374622
23.222906
23.064660
22.899524
22.727110
22.546995
22.358717
22.161777
21.955629
21.739675
21.513264
21.275681
21.026146
20.763805
20.487720
20.196864
19.890110
19.566214
19.223809
18.861389
18.477293
18.069686
17.636535
17.175570
16.684229
16.159556
15.598001
14.994982
14.343895
13.633852
12.844503
11.934217
10.812925
9.278335
6.862491
2.482282
-6.005972
-19.957483
-33.964634
-44.815686
-52.743730
-58.435442
-62.489876
-65.362997
-67.388025
-68.804518
-69.783275
-70.445354
-70.876024
-71.134825
-71.262744
-71.287306
-71.226147
-71.089490
-70.881832
-70.603040
-70.249015
24.882969
24.922151
24.963485
25.006883
25.052114
25.098882
25.146869
25.195766
25.245284
25.295155
25.345134
25.395001
25.444558
25.493624
25.542040
25.589661
25.636356
25.682009
25.726517
25.769787
25.811741
25.852306
25.891423
25.929035
25.965096
25.999566
26.032411
26.063603
26.093117
26.120935
26.147039
26.171418
26.194059
26.214955
26.234098
26.251484
26.267106
26.280961
26.293044
26.303352
26.311881
26.318624
26.323577
26.326734
26.328087
26.327628
26.325348
26.321235
26.315277
26.307460
26.297770
26.286189
26.272699
26.257280
26.239910
26.220566
26.199222
26.175851
26.150424
26.122909
26.093274
26.061484
26.027501
25.991286
25.952797
25.911989
25.868817
25.823229
25.775174
25.724597
25.671438
25.615638
25.557129
25.495842
25.431704
25.364638
25.294559
25.221381