# vtk DataFile Version 3.0
Example structured points dataset
ASCII

DATASET STRUCTURED_POINTS
DIMENSIONS 151 151 2
ORIGIN 0 0 0
SPACING 0.005000 0.005000 0.005000

POINT_DATA 45602
SCALARS Transmembrane_Potential float 1
LOOKUP_TABLE default
18.940790
18.936373
18.923345
18.901866
18.871793
18.832881
18.784967
18.727940
18.661708
18.586162
18.501161
18.406521
18.302004
18.187317
18.062112
17.925983
17.778473
17.619069
17.447200
17.262243
17.063514
16.850263
16.621668
16.376831
16.114768
15.834392
15.534499
15.213763
14.870726
14.503760
14.111041
13.690531
13.239957
12.756771
12.238074
11.680528
11.080247
10.432615
9.731881
8.970369
8.136843
7.212844
6.163475
4.912597
3.275397
0.779418
-3.762122
-12.685863
-25.709364
-37.418449
-46.329167
-52.865629
-57.628118
-61.105241
-63.658453
-65.547839
-66.958942
-68.023920
-68.837049
-69.465766
-69.958495
-70.350150
-70.666025
-70.924541
-71.139193
-71.319926
-71.474124
-71.607310
-71.723648
-71.826308
-71.917724
-71.999785
-72.073971
-72.141456
-72.203181
-72.259907
-72.312258
-72.360752
-72.405819
-72.447824
-72.487079
-72.523849
-72.558367
-72.590832
-72.621424
-72.650297
-72.677590
-72.703427
-72.727920
-72.751168
-72.773260
-72.794280
-72.814300
-72.833389
-72.851608
-72.869015
-72.885661
-72.901594
-72.916859
-72.931495
-72.945541
-72.959032
-72.972000
-72.984475
-72.996485
-73.008057
-73.019215
-73.029982
-73.040378
-73.050425
-73.060139
-73.069540
-73.078643
-73.087464
-73.096016
-73.104314
-73.112369
-73.120195
-73.127801
-73.135197
-73.142394
-73.149399
-73.156221
-73.162866
-73.169342
-73.175654
-73.181805
-73.187802
-73.193645
-73.199338
-73.204881
-73.210274
-73.215517
-73.220605
-73.225535
-73.230301
-73.234897
-73.239312
-73.243536
-73.247554
-73.251353
-73.254912
-73.258214
-73.261233
-73.263945
-73.266323
-73.268336
-73.269954
-73.271144
-73.271876
-73.272125
18.936373
18.951694
18.956175
18.950916
18.936191
18.911963
18.878198
18.834880
18.781982
18.719451
18.647191
18.565054
18.472836
18.370276
18.257055
18.132797
17.997077
17.849414
17.689275
17.516077
17.329183
17.127893
16.911440
16.678991
16.429639
16.162382
15.876112
15.569621
15.241594
14.890577
14.514957
14.112958
13.682654
13.221950
12.728555
12.199961
11.633453
11.026093
10.374560
9.674655
8.919905
8.097595
7.177014
6.075209
4.561476
2.011417
-3.086008
-13.131278
-26.832718
-38.673741
-47.549144
-53.996713
-58.654204
-62.026315
-64.481667
-66.283106
-67.616723
-68.614164
-69.368729
-69.946749
-70.395554
-70.749060
-71.031685
-71.261097
-71.450152
-71.608263
-71.742367
-71.857614
-71.957862
-72.046019
-72.124307
-72.194434
-72.257728
-72.315236
-72.367789
-72.416059
-72.460589
-72.501828
-72.540150
-72.575869
-72.609250
-72.640523
-72.669884
-72.697504
-72.723535
-72.748108
-72.771341
-72.793339
-72.814196
-72.833996
-72.852815
-72.870724
-72.887784
-72.904052
-72.919582
-72.934421
-72.948613
-72.962199
-72.975216
-72.987699
-72.999680
-73.011188
-73.022251
-73.032894
-73.043142
-73.053016
-73.062537
-73.071725
-73.080597
-73.089170
-73.097461
-73.105485
-73.113253
-73.120781
-73.128080
-73.135162
-73.142036
-73.148714
-73.155203
-73.161513
-73.167651
-73.173625
-73.179441
-73.185104
-73.190621
-73.195995
-73.201229
-73.206327
-73.211290
-73.216120
-73.220815
-73.225376
-73.229799
-73.234081
-73.238216
-73.242198
-73.246018
-73.249665
-73.253127
-73.256389
-73.259433
-73.262240
-73.264786
-73.267045
-73.268990
-73.270586
-73.271798
-73.272586
-73.272906
-73.272702
-73.271901
18.923348
18.956176
18.977081
18.987260
18.987212
18.977083
18.956955
18.926876
18.886861
18.836882
18.776866
18.706686
18.626157
18.535040
18.433038
18.319801
18.194930
18.057980
17.908453
17.745807
17.569451
17.378733
17.172944
16.951314
16.713007
16.457097
16.182573
15.888336
15.573200
15.235863
14.874901
14.488778
14.075869
13.634456
13.162732
12.658824
12.120834
11.546844
10.934703
10.281291
9.580389
8.816774
7.950009
6.871198
5.291218
2.469967
-3.280007
-14.316972
-28.374057
-40.105132
-48.806596
-55.091837
-59.608492
-62.860468
-65.213902
-66.929042
-68.189588
-69.125071
-69.826965
-70.360042
-70.770328
-71.090651
-71.344531
-71.548899
-71.716006
-71.854769
-71.971718
-72.071671
-72.158211
-72.234021
-72.301134
-72.361102
-72.415123
-72.464135
-72.508877
-72.549940
-72.587803
-72.622855
-72.655422
-72.685774
-72.714140
-72.740715
-72.765668
-72.789145
-72.811273
-72.832166
-72.851922
-72.870632
-72.888373
-72.905218
-72.921232
-72.936472
-72.950992
-72.964841
-72.978062
-72.990697
-73.002782
-73.014352
-73.025439
-73.036071
-73.046277
-73.056081
-73.065506
-73.074574
-73.083306
-73.091719
-73.099833
-73.107662
-73.115223
-73.122530
-73.129596
-73.136433
-73.143054
-73.149470
-73.155690
-73.161724
-73.167581
-73.173270
-73.178798
-73.184172
-73.189399
-73.194484
-73.199433
-73.204251
-73.208941
-73.213506
-73.217949
-73.222272
-73.226476
-73.230560
-73.234524
-73.238365
-73.242080
-73.245663
-73.249109
-73.252410
-73.255555
-73.258533
-73.261329
-73.263927
-73.266308
-73.268448
-73.270323
-73.271903
-73.273155
-73.274042
-73.274520
-73.274541
-73.274050
-73.272979
-73.271244
18.901872
18.950921
18.987263
19.012112
19.026104
19.029529
19.022548
19.005244
18.977640
18.939715
18.891398
18.832566
18.763044
18.682605
18.590971
18.487816
18.372771
18.245421
18.105309
17.951932
17.784744
17.603141
17.406467
17.194014
16.965000
16.718573
16.453800
16.169676
15.865113
15.538925
15.189831
14.816473
14.417426
13.991206
13.536278
13.051082
12.534040
11.983455
11.397093
10.770998
10.096397
9.351744
8.482592
7.351369
5.612902
2.419596
-4.081026
-16.099913
-30.244837
-41.686798
-50.108216
-56.170288
-60.513374
-63.629381
-65.874862
-67.503146
-68.692977
-69.570280
-70.223850
-70.716430
-71.092487
-71.383642
-71.612467
-71.795148
-71.943342
-72.065494
-72.167758
-72.254645
-72.329490
-72.394777
-72.452371
-72.503689
-72.549817
-72.591595
-72.629684
-72.664609
-72.696789
-72.726568
-72.754227
-72.780000
-72.804085
-72.826649
-72.847837
-72.867773
-72.886566
-72.904312
-72.921094
-72.936989
-72.952064
-72.966379
-72.979989
-72.992944
-73.005287
-73.017062
-73.028304
-73.039048
-73.049326
-73.059167
-73.068597
-73.077642
-73.086324
-73.094665
-73.102684
-73.110400
-73.117830
-73.124989
-73.131893
-73.138556
-73.144990
-73.151209
-73.157222
-73.163040
-73.168674
-73.174133
-73.179426
-73.184560
-73.189543
-73.194382
-73.199083
-73.203653
-73.208096
-73.212417
-73.216620
-73.220709
-73.224688
-73.228557
-73.232319
-73.235975
-73.239524
-73.242966
-73.246298
-73.249517
-73.252619
-73.255598
-73.258447
-73.261155
-73.263713
-73.266107
-73.268321
-73.270336
-73.272131
-73.273681
-73.274957
-73.275927
-73.276552
-73.276791
-73.276594
-73.275905
-73.274660
-73.272782
-73.270182
18.871803
18.936201
18.987219
19.026107
19.053605
19.070106
19.075808
19.070799
19.055094
19.028657
18.991407
18.943217
18.883914
18.813281
18.731058
18.636947
18.530605
18.411655
18.279676
18.134208
17.974744
17.800730
17.611557
17.406562
17.185015
16.946117
16.688999
16.412717
16.116245
15.798470
15.458198
15.094160
14.705015
14.289354
13.845700
13.372503
12.868071
12.330326
11.756153
11.139749
10.468593
9.713630
8.805678
7.578377
5.627763
1.982413
-5.393947
-18.367980
-32.363799
-43.384801
-51.447785
-57.239520
-61.382007
-64.347861
-66.479134
-68.019022
-69.139279
-69.960963
-70.569433
-71.024959
-71.370200
-71.635435
-71.842228
-72.005994
-72.137800
-72.245632
-72.335283
-72.410981
-72.475833
-72.532140
-72.581621
-72.625570
-72.664974
-72.700593
-72.733018
-72.762715
-72.790056
-72.815341
-72.838817
-72.860687
-72.881121
-72.900263
-72.918238
-72.935151
-72.951095
-72.966152
-72.980393
-72.993882
-73.006676
-73.018827
-73.030381
-73.041380
-73.051860
-73.061859
-73.071406
-73.080531
-73.089261
-73.097620
-73.105631
-73.113315
-73.120691
-73.127778
-73.134591
-73.141148
-73.147461
-73.153545
-73.159412
-73.165074
-73.170541
-73.175825
-73.180935
-73.185879
-73.190667
-73.195305
-73.199801
-73.204163
-73.208395
-73.212504
-73.216496
-73.220374
-73.224144
-73.227808
-73.231371
-73.234835
-73.238201
-73.241472
-73.244649
-73.247730
-73.250715
-73.253603
-73.256391
-73.259073
-73.261646
-73.264102
-73.266433
-73.268627
-73.270674
-73.272557
-73.274260
-73.275762
-73.277038
-73.278062
-73.278802
-73.279221
-73.279277
-73.278923
-73.278102
-73.276753
-73.274802
-73.272166
-73.268747
18.832898
18.911978
18.977095
19.029538
19.070110
19.099254
19.117179
19.123958
19.119582
19.103993
19.077091
19.038740
18.988771
18.926979
18.853125
18.766936
18.668105
18.556288
18.431105
18.292135
18.138912
17.970921
17.787594
17.588303
17.372357
17.138997
16.887387
16.616615
16.325682
16.013504
15.678911
15.320638
14.937325
14.527507
14.089600
13.621845
13.122152
12.587740
12.014252
11.393663
10.709326
9.924386
8.954531
7.602015
5.391787
1.195310
-7.213175
-21.021853
-34.660639
-45.164669
-52.813233
-58.300047
-62.221283
-65.025579
-67.037231
-68.487053
-69.538296
-70.306178
-70.871998
-71.293175
-71.610337
-71.852295
-72.039538
-72.186685
-72.304206
-72.399635
-72.478414
-72.544504
-72.600798
-72.649432
-72.691989
-72.729657
-72.763335
-72.793709
-72.821312
-72.846559
-72.869779
-72.891238
-72.911151
-72.929695
-72.947018
-72.963243
-72.978478
-72.992812
-73.006325
-73.019087
-73.031158
-73.042593
-73.053440
-73.063742
-73.073538
-73.082864
-73.091752
-73.100232
-73.108329
-73.116070
-73.123475
-73.130566
-73.137362
-73.143881
-73.150140
-73.156153
-73.161934
-73.167497
-73.172854
-73.178017
-73.182995
-73.187800
-73.192439
-73.196923
-73.201259
-73.205454
-73.209516
-73.213450
-73.217264
-73.220963
-73.224552
-73.228036
-73.231419
-73.234704
-73.237897
-73.240998
-73.244011
-73.246938
-73.249779
-73.252537
-73.255209
-73.257797
-73.260298
-73.262709
-73.265027
-73.267247
-73.269362
-73.271365
-73.273246
-73.274994
-73.276595
-73.278031
-73.279285
-73.280333
-73.281149
-73.281704
-73.281961
-73.281881
-73.281417
-73.280516
-73.279117
-73.277150
-73.274534
-73.271177
-73.266975
18.784991
18.878220
18.956974
19.022563
19.075818
19.117185
19.146856
19.164876
19.171203
19.165750
19.148402
19.119016
19.077427
19.023447
18.956861
18.877427
18.784873
18.678895
18.559149
18.425253
18.276778
18.113243
17.934109
17.738779
17.526584
17.296782
17.048551
16.780981
16.493074
16.183732
15.851748
15.495799
15.114431
14.706044
14.268836
13.800710
13.299056
12.760275
12.178664
11.543857
10.834938
10.006859
8.958246
7.452216
4.919881
0.034143
-9.578045
-23.967287
-37.075531
-46.994483
-54.190465
-59.348606
-63.034069
-65.668563
-67.556572
-68.915048
-69.897707
-70.613210
-71.138332
-71.527343
-71.818655
-72.039506
-72.209252
-72.341690
-72.446684
-72.531314
-72.600686
-72.658499
-72.707450
-72.749516
-72.786159
-72.818470
-72.847268
-72.873176
-72.896673
-72.918133
-72.937846
-72.956049
-72.972929
-72.988642
-73.003315
-73.017055
-73.029955
-73.042092
-73.053533
-73.064338
-73.074559
-73.084241
-73.093425
-73.102149
-73.110446
-73.118344
-73.125872
-73.133055
-73.139914
-73.146471
-73.152744
-73.158752
-73.164510
-73.170033
-73.175336
-73.180430
-73.185329
-73.190043
-73.194582
-73.198957
-73.203175
-73.207246
-73.211178
-73.214977
-73.218650
-73.222204
-73.225645
-73.228978
-73.232208
-73.235340
-73.238378
-73.241326
-73.244188
-73.246966
-73.249663
-73.252282
-73.254824
-73.257291
-73.259682
-73.261999
-73.264240
-73.266403
-73.268487
-73.270488
-73.272402
-73.274223
-73.275943
-73.277554
-73.279045
-73.280404
-73.281615
-73.282660
-73.283517
-73.284164
-73.284570
-73.284703
-73.284524
-73.283989
-73.283047
-73.281640
-73.279701
-73.277151
-73.273904
-73.269859
-73.264901
18.727974
18.834910
18.926903
19.005266
19.070815
19.123969
19.164881
19.193553
19.209906
19.213829
19.205189
19.183844
19.149639
19.102409
19.041966
18.968105
18.880591
18.779158
18.663502
18.533276
18.388082
18.227469
18.050922
17.857859
17.647621
17.419468
17.172573
16.906010
16.618749
16.309641
15.977410
15.620636
15.237731
14.826902
14.386080
13.912792
13.403885
12.854925
12.258836
11.602839
10.861435
9.979999
8.835290
7.138067
4.196320
-1.554106
-12.511655
-27.116085
-39.557836
-48.845849
-55.565297
-60.380091
-63.820769
-66.280343
-68.042293
-69.308832
-70.223484
-70.887889
-71.373973
-71.732644
-71.999966
-72.201519
-72.355483
-72.474809
-72.568748
-72.643931
-72.705128
-72.755790
-72.798423
-72.834857
-72.866443
-72.894180
-72.918818
-72.940922
-72.960925
-72.979162
-72.995893
-73.011325
-73.025625
-73.038929
-73.051347
-73.062973
-73.073886
-73.084151
-73.093828
-73.102966
-73.111610
-73.119799
-73.127567
-73.134946
-73.141963
-73.148644
-73.155012
-73.161088
-73.166891
-73.172438
-73.177745
-73.182828
-73.187700
-73.192373
-73.196860
-73.201171
-73.205316
-73.209305
-73.213145
-73.216847
-73.220416
-73.223861
-73.227187
-73.230401
-73.233508
-73.236515
-73.239425
-73.242243
-73.244974
-73.247622
-73.250189
-73.252679
-73.255095
-73.257440
-73.259714
-73.261921
-73.264060
-73.266132
-73.268138
-73.270077
-73.271948
-73.273747
-73.275474
-73.277122
-73.278688
-73.280164
-73.281543
-73.282814
-73.283967
-73.284986
-73.285856
-73.286556
-73.287064
-73.287354
-73.287393
-73.287145
-73.286570
-73.285619
-73.284236
-73.282357
-73.279910
-73.276810
-73.272960
-73.268252
-73.262560
18.661753
18.782023
18.886896
18.977670
19.055118
19.119601
19.171215
19.209913
19.235580
19.248080
19.247274
19.233023
19.205193
19.163643
19.108222
19.038763
18.955072
18.856922
18.744046
18.616131
18.472810
18.313652
18.138158
17.945753
17.735780
17.507488
17.260028
16.992440
16.703640
16.392416
16.057399
15.697050
15.309623
14.893118
14.445195
13.963012
13.442884
12.879545
12.264510
11.582350
10.802022
9.856430
8.593313
6.655183
3.193736
-3.623591
-15.965975
-30.388011
-42.064460
-50.693879
-56.924360
-61.388686
-64.580363
-66.862792
-68.497897
-69.672723
-70.520261
-71.134866
-71.583427
-71.913357
-72.158282
-72.342074
-72.481706
-72.589269
-72.673397
-72.740272
-72.794337
-72.838799
-72.875981
-72.907578
-72.934832
-72.958661
-72.979751
-72.998615
-73.015644
-73.031139
-73.045333
-73.058410
-73.070517
-73.081773
-73.092275
-73.102103
-73.111325
-73.119999
-73.128175
-73.135895
-73.143197
-73.150115
-73.156677
-73.162910
-73.168838
-73.174482
-73.179862
-73.184995
-73.189898
-73.194584
-73.199069
-73.203363
-73.207480
-73.211428
-73.215220
-73.218862
-73.222364
-73.225735
-73.228980
-73.232107
-73.235123
-73.238033
-73.240843
-73.243558
-73.246183
-73.248722
-73.251179
-73.253559
-73.255864
-73.258098
-73.260263
-73.262363
-73.264399
-73.266372
-73.268286
-73.270140
-73.271934
-73.273670
-73.275346
-73.276962
-73.278515
-73.280003
-73.281422
-73.282768
-73.284034
-73.285213
-73.286296
-73.287273
-73.288131
-73.288854
-73.289425
-73.289821
-73.290019
-73.289989
-73.289698
-73.289107
-73.288170
-73.286835
-73.285042
-73.282722
-73.279794
-73.276169
-73.271741
-73.266392
-73.259984
18.586221
18.719504
18.836927
18.939754
19.028690
19.104019
19.165770
19.213842
19.248087
19.268351
19.274493
19.266390
19.243931
19.207009
19.155514
19.089320
19.008276
18.912196
18.800852
18.673960
18.531178
18.372095
18.196221
18.002983
17.791713
17.561643
17.311889
17.041446
16.749174
16.433778
16.093790
15.727543
15.333133
14.908363
14.450634
13.956752
13.422510
12.841788
12.204514
11.491971
10.665899
9.642965
8.233481
5.990908
1.864481
-6.255674
-19.817331
-33.710894
-44.558216
-52.516851
-58.255471
-62.368515
-65.311086
-67.416728
-68.925738
-70.009919
-70.791630
-71.357854
-71.770360
-72.073008
-72.296946
-72.464312
-72.590857
-72.687809
-72.763183
-72.822718
-72.870534
-72.909603
-72.942071
-72.969503
-72.993042
-73.013529
-73.031590
-73.047692
-73.062190
-73.075354
-73.087392
-73.098468
-73.108712
-73.118228
-73.127101
-73.135401
-73.143188
-73.150510
-73.157410
-73.163924
-73.170086
-73.175923
-73.181460
-73.186719
-73.191721
-73.196483
-73.201022
-73.205353
-73.209489
-73.213444
-73.217228
-73.220851
-73.224325
-73.227656
-73.230855
-73.233929
-73.236884
-73.239727
-73.242465
-73.245104
-73.247648
-73.250103
-73.252474
-73.254763
-73.256977
-73.259118
-73.261190
-73.263195
-73.265138
-73.267019
-73.268842
-73.270608
-73.272320
-73.273978
-73.275583
-73.277136
-73.278637
-73.280085
-73.281480
-73.282819
-73.284101
-73.285322
-73.286477
-73.287562
-73.288570
-73.289493
-73.290321
-73.291042
-73.291643
-73.292107
-73.292414
-73.292542
-73.292463
-73.292147
-73.291558
-73.290653
-73.289384
-73.287693
-73.285517
-73.282781
-73.279398
-73.275271
-73.270285
-73.264313
-73.257207
18.501236
18.647257
18.776924
18.891448
18.991449
19.077125
19.148429
19.205209
19.247287
19.274500
19.286714
19.283827
19.265760
19.232448
19.183823
19.119807
19.040293
18.945138
18.834149
18.707074
18.563594
18.403310
18.225740
18.030305
17.816324
17.583003
17.329421
17.054523
16.757101
16.435777
16.088984
15.714934
15.311575
14.876521
14.406931
13.899270
13.348791
12.748391
12.086015
11.338720
10.458939
9.342037
7.747353
5.104784
0.101284
-9.573343
-23.907798
-37.021535
-47.007087
-54.295985
-59.547834
-63.314040
-66.010879
-67.942336
-69.327392
-70.322799
-71.040393
-71.559823
-71.937760
-72.214510
-72.418745
-72.570869
-72.685415
-72.772750
-72.840277
-72.893299
-72.935620
-72.969980
-72.998361
-73.022200
-73.042547
-73.060173
-73.075647
-73.089396
-73.101740
-73.112920
-73.123126
-73.132503
-73.141165
-73.149204
-73.156695
-73.163699
-73.170267
-73.176441
-73.182258
-73.187750
-73.192943
-73.197862
-73.202528
-73.206960
-73.211174
-73.215187
-73.219012
-73.222662
-73.226147
-73.229479
-73.232668
-73.235721
-73.238648
-73.241455
-73.244150
-73.246740
-73.249230
-73.251626
-73.253933
-73.256155
-73.258299
-73.260367
-73.262363
-73.264291
-73.266155
-73.267958
-73.269701
-73.271389
-73.273022
-73.274604
-73.276135
-73.277618
-73.279054
-73.280443
-73.281786
-73.283082
-73.284333
-73.285536
-73.286690
-73.287793
-73.288842
-73.289834
-73.290764
-73.291625
-73.292411
-73.293113
-73.293719
-73.294218
-73.294594
-73.294830
-73.294905
-73.294794
-73.294468
-73.293895
-73.293035
-73.291842
-73.290266
-73.288244
-73.285709
-73.282578
-73.278761
-73.274150
-73.268625
-73.262047
-73.254256
18.406615
18.565136
18.706757
18.832627
18.943269
19.038783
19.119051
19.183871
19.233043
19.266403
19.283833
19.285260
19.270646
19.239969
19.193214
19.130349
19.051317
18.956016
18.844291
18.715919
18.570601
18.407953
18.227494
18.028639
17.810688
17.572816
17.314064
17.033324
16.729322
16.400602
16.045500
15.662112
15.248247
14.801347
14.318336
13.795321
13.226929
12.604843
11.914475
11.127305
10.182978
8.946647
7.105289
3.920400
-2.232593
-13.619840
-28.092251
-40.268142
-49.384381
-56.015458
-60.792171
-64.220310
-66.677684
-68.439466
-69.703922
-70.613161
-71.268751
-71.743165
-72.088067
-72.340270
-72.526003
-72.663959
-72.767473
-72.846060
-72.906527
-72.953747
-72.991217
-73.021456
-73.046283
-73.067016
-73.084616
-73.099789
-73.113053
-73.124795
-73.135304
-73.144800
-73.153450
-73.161384
-73.168703
-73.175490
-73.181809
-73.187714
-73.193248
-73.198449
-73.203348
-73.207972
-73.212344
-73.216484
-73.220411
-73.224142
-73.227689
-73.231066
-73.234285
-73.237356
-73.240289
-73.243093
-73.245776
-73.248345
-73.250808
-73.253170
-73.255438
-73.257617
-73.259711
-73.261727
-73.263668
-73.265538
-73.267340
-73.269080
-73.270759
-73.272380
-73.273947
-73.275462
-73.276927
-73.278344
-73.279715
-73.281042
-73.282326
-73.283568
-73.284769
-73.285929
-73.287048
-73.288127
-73.289164
-73.290158
-73.291107
-73.292009
-73.292860
-73.293656
-73.294392
-73.295061
-73.295655
-73.296165
-73.296579
-73.296885
-73.297064
-73.297100
-73.296969
-73.296644
-73.296097
-73.295290
-73.294182
-73.292725
-73.290863
-73.288532
-73.285656
-73.282151
-73.277917
-73.272840
-73.266791
-73.259621
-73.251159
18.302118
18.472936
18.626245
18.763119
18.883977
18.988824
19.077471
19.149675
19.205220
19.243950
19.265773
19.270652
19.258594
19.229633
19.183804
19.121131
19.041605
18.945170
18.831706
18.701019
18.552832
18.386769
18.202351
17.998984
17.775949
17.532393
17.267313
16.979550
16.667765
16.330427
15.965781
15.571819
15.146217
14.686249
14.188592
13.648939
13.061149
12.415308
11.693323
10.858745
9.833091
8.439563
6.266566
2.353724
-5.255299
-18.247312
-32.257088
-43.410269
-51.668590
-57.662334
-61.980781
-65.083111
-67.309650
-68.907845
-70.056079
-70.882391
-71.478457
-71.909819
-72.223289
-72.452285
-72.620661
-72.745444
-72.838796
-72.909409
-72.963504
-73.005538
-73.038713
-73.065333
-73.087061
-73.105104
-73.120338
-73.133406
-73.144780
-73.154810
-73.163757
-73.171820
-73.179149
-73.185859
-73.192041
-73.197766
-73.203092
-73.208065
-73.212724
-73.217101
-73.221222
-73.225110
-73.228787
-73.232268
-73.235569
-73.238705
-73.241686
-73.244525
-73.247230
-73.249811
-73.252276
-73.254632
-73.256887
-73.259046
-73.261115
-73.263100
-73.265005
-73.266836
-73.268596
-73.270289
-73.271920
-73.273490
-73.275004
-73.276465
-73.277875
-73.279236
-73.280551
-73.281822
-73.283050
-73.284238
-73.285387
-73.286498
-73.287572
-73.288609
-73.289611
-73.290577
-73.291507
-73.292400
-73.293255
-73.294071
-73.294846
-73.295575
-73.296257
-73.296885
-73.297455
-73.297958
-73.298387
-73.298732
-73.298979
-73.299115
-73.299122
-73.298980
-73.298666
-73.298151
-73.297402
-73.296383
-73.295047
-73.293345
-73.291217
-73.288594
-73.285396
-73.281532
-73.276897
-73.271370
-73.264811
-73.257062
-73.247941
18.187455
18.370397
18.535145
18.682695
18.813357
18.927044
19.023500
19.102452
19.163678
19.207036
19.232467
19.239982
19.229639
19.201529
19.155747
19.092375
19.011455
18.912976
18.796856
18.662930
18.510940
18.340521
18.151193
17.942352
17.713259
17.463029
17.190622
16.894827
16.574245
16.227271
15.852068
15.446523
15.008185
14.534145
14.020797
13.463316
12.854508
12.182213
11.423410
10.530678
9.400543
7.797451
5.170146
0.263669
-9.129200
-23.183837
-36.314560
-46.415986
-53.842623
-59.226335
-63.107513
-65.899040
-67.905249
-69.347216
-70.384445
-71.131603
-71.670942
-72.061382
-72.345088
-72.552221
-72.704348
-72.816890
-72.900879
-72.964211
-73.012543
-73.049931
-73.079293
-73.102726
-73.121748
-73.137455
-73.150647
-73.161906
-73.171661
-73.180230
-73.187848
-73.194694
-73.200901
-73.206573
-73.211791
-73.216617
-73.221103
-73.225288
-73.229206
-73.232885
-73.236348
-73.239615
-73.242702
-73.245626
-73.248398
-73.251030
-73.253533
-73.255915
-73.258186
-73.260352
-73.262421
-73.264398
-73.266290
-73.268102
-73.269838
-73.271504
-73.273103
-73.274639
-73.276115
-73.277536
-73.278903
-73.280220
-73.281490
-73.282715
-73.283896
-73.285037
-73.286139
-73.287203
-73.288232
-73.289225
-73.290186
-73.291114
-73.292009
-73.292874
-73.293706
-73.294507
-73.295276
-73.296012
-73.296713
-73.297378
-73.298004
-73.298587
-73.299123
-73.299608
-73.300035
-73.300396
-73.300682
-73.300883
-73.300985
-73.300972
-73.300827
-73.300528
-73.300050
-73.299363
-73.298432
-73.297218
-73.295673
-73.293742
-73.291364
-73.288464
-73.284960
-73.280752
-73.275730
-73.269765
-73.262709
-73.254394
-73.244626
18.062277
18.257198
18.433162
18.591077
18.731149
18.853202
18.956925
19.042019
19.108265
19.155548
19.183850
19.193232
19.183816
19.155753
19.109205
19.044310
18.961168
18.859813
18.740201
18.602199
18.445564
18.269944
18.074858
17.859691
17.623685
17.365924
17.085328
16.780635
16.450390
16.092918
15.706297
15.288312
14.836375
14.347367
13.817317
13.240695
12.608853
11.906492
11.103614
10.136953
8.866324
6.969900
3.699080
-2.555934
-13.924580
-28.171440
-40.199043
-49.260609
-55.893360
-60.699646
-64.167711
-66.665536
-68.463358
-69.757438
-70.689538
-71.361736
-71.847400
-72.199186
-72.454857
-72.641477
-72.778435
-72.879621
-72.954987
-73.011667
-73.054779
-73.087998
-73.113966
-73.134588
-73.151240
-73.164916
-73.176342
-73.186046
-73.194415
-73.201737
-73.208223
-73.214033
-73.219289
-73.224081
-73.228483
-73.232549
-73.236323
-73.239842
-73.243134
-73.246223
-73.249130
-73.251871
-73.254461
-73.256913
-73.259238
-73.261445
-73.263543
-73.265541
-73.267444
-73.269260
-73.270994
-73.272651
-73.274236
-73.275755
-73.277210
-73.278605
-73.279945
-73.281232
-73.282468
-73.283658
-73.284804
-73.285907
-73.286970
-73.287995
-73.288984
-73.289938
-73.290860
-73.291750
-73.292609
-73.293438
-73.294239
-73.295012
-73.295757
-73.296475
-73.297165
-73.297826
-73.298459
-73.299061
-73.299631
-73.300167
-73.300666
-73.301124
-73.301537
-73.301899
-73.302203
-73.302441
-73.302604
-73.302680
-73.302654
-73.302511
-73.302232
-73.301792
-73.301167
-73.300324
-73.299227
-73.297833
-73.296093
-73.293949
-73.291335
-73.288173
-73.284374
-73.279836
-73.274439
-73.268049
-73.260508
-73.251638
-73.241233
17.926179
18.132966
18.319946
18.487941
18.637053
18.767026
18.877502
18.968168
19.038815
19.089362
19.119840
19.130374
19.121149
19.092387
19.044316
18.977141
18.891016
18.786024
18.662161
18.519321
18.357284
18.175705
17.974104
17.751853
17.508175
17.242123
16.952579
16.638232
16.297567
15.928840
15.530044
15.098851
14.632512
14.127642
13.579778
12.982398
12.324732
11.586835
10.728416
9.663129
8.197955
5.888108
1.716270
-6.283311
-19.392484
-33.033439
-43.866653
-51.926755
-57.811527
-62.076788
-65.158151
-67.380877
-68.983294
-70.138548
-70.971878
-71.573628
-72.008859
-72.324365
-72.553775
-72.721236
-72.844083
-72.934758
-73.002192
-73.052797
-73.091179
-73.120650
-73.143595
-73.161732
-73.176305
-73.188213
-73.198110
-73.206475
-73.213656
-73.219912
-73.225434
-73.230365
-73.234813
-73.238861
-73.242571
-73.245994
-73.249167
-73.252123
-73.254886
-73.257478
-73.259915
-73.262213
-73.264384
-73.266438
-73.268385
-73.270233
-73.271990
-73.273662
-73.275255
-73.276775
-73.278227
-73.279614
-73.280941
-73.282211
-73.283429
-73.284596
-73.285717
-73.286794
-73.287828
-73.288824
-73.289781
-73.290704
-73.291593
-73.292449
-73.293276
-73.294073
-73.294842
-73.295584
-73.296301
-73.296992
-73.297658
-73.298300
-73.298918
-73.299511
-73.300080
-73.300623
-73.301140
-73.301629
-73.302089
-73.302515
-73.302906
-73.303258
-73.303565
-73.303821
-73.304020
-73.304152
-73.304208
-73.304175
-73.304038
-73.303780
-73.303380
-73.302815
-73.302057
-73.301072
-73.299822
-73.298262
-73.296340
-73.293995
-73.291157
-73.287745
-73.283664
-73.278806
-73.273047
-73.266242
-73.258227
-73.248813
-73.237783
17.778702
17.997274
18.195100
18.372916
18.530729
18.668209
18.784961
18.880664
18.955133
19.008326
19.040334
19.051349
19.041629
19.011472
18.961179
18.891021
18.801212
18.691884
18.563073
18.414704
18.246575
18.058352
17.849552
17.619537
17.367507
17.092485
16.793310
16.468623
16.116849
15.736170
15.324486
14.879338
14.397770
13.876033
13.308959
12.688567
12.000989
11.219540
10.288982
9.089028
7.347789
4.438764
-1.008907
-11.117847
-25.106012
-37.657331
-47.289136
-54.403272
-59.591341
-63.354442
-66.076960
-68.044157
-69.464829
-70.490793
-71.232039
-71.768063
-72.156236
-72.437907
-72.642854
-72.792506
-72.902278
-72.983255
-73.043408
-73.088470
-73.122567
-73.148668
-73.168915
-73.184853
-73.197599
-73.207965
-73.216538
-73.223748
-73.229909
-73.235255
-73.239955
-73.244139
-73.247903
-73.251320
-73.254446
-73.257325
-73.259991
-73.262472
-73.264789
-73.266961
-73.269003
-73.270927
-73.272743
-73.274462
-73.276091
-73.277636
-73.279106
-73.280504
-73.281836
-73.283107
-73.284320
-73.285479
-73.286588
-73.287650
-73.288668
-73.289643
-73.290580
-73.291479
-73.292343
-73.293174
-73.293974
-73.294744
-73.295486
-73.296201
-73.296890
-73.297555
-73.298195
-73.298813
-73.299409
-73.299983
-73.300536
-73.301068
-73.301578
-73.302067
-73.302533
-73.302977
-73.303396
-73.303789
-73.304154
-73.304488
-73.304787
-73.305048
-73.305264
-73.305430
-73.305538
-73.305579
-73.305541
-73.305413
-73.305178
-73.304817
-73.304311
-73.303633
-73.302754
-73.301639
-73.300248
-73.298534
-73.296441
-73.293906
-73.290855
-73.287203
-73.282851
-73.277684
-73.271571
-73.264362
-73.255883
-73.245936
-73.234292
17.619335
17.849642
18.058176
18.245588
18.411797
18.556408
18.678996
18.779243
18.856992
18.912255
18.945186
18.956055
18.945200
18.912999
18.859829
18.786034
18.691889
18.577577
18.443174
18.288636
18.113782
17.918286
17.701661
17.463258
17.202251
16.917629
16.608191
16.272524
15.908987
15.515682
15.090397
14.630507
14.132780
13.592950
13.004812
12.358214
11.634599
10.797036
9.767544
8.374442
6.227946
2.443444
-4.741124
-16.965486
-30.716670
-41.974010
-50.449557
-56.684200
-61.230098
-64.531237
-66.923503
-68.655235
-69.908178
-70.814647
-71.470674
-71.945815
-72.290373
-72.540685
-72.722976
-72.856159
-72.953868
-73.025926
-73.079412
-73.119426
-73.149643
-73.172714
-73.190553
-73.204543
-73.215684
-73.224702
-73.232125
-73.238339
-73.243626
-73.248193
-73.252194
-73.255743
-73.258926
-73.261809
-73.264442
-73.266862
-73.269100
-73.271181
-73.273122
-73.274940
-73.276648
-73.278257
-73.279776
-73.281212
-73.282573
-73.283865
-73.285092
-73.286259
-73.287372
-73.288432
-73.289445
-73.290413
-73.291339
-73.292225
-73.293074
-73.293888
-73.294669
-73.295419
-73.296140
-73.296833
-73.297500
-73.298142
-73.298760
-73.299355
-73.299929
-73.300482
-73.301015
-73.301528
-73.302023
-73.302498
-73.302956
-73.303394
-73.303814
-73.304214
-73.304595
-73.304954
-73.305290
-73.305602
-73.305887
-73.306142
-73.306364
-73.306547
-73.306686
-73.306774
-73.306803
-73.306764
-73.306646
-73.306433
-73.306111
-73.305660
-73.305058
-73.304278
-73.303288
-73.302054
-73.300532
-73.298673
-73.296419
-73.293704
-73.290450
-73.286567
-73.281952
-73.276486
-73.270030
-73.262427
-73.253494
-73.243023
-73.230775
17.447507
17.689538
17.908678
18.105500
18.279838
18.431242
18.559265
18.663599
18.744127
18.800919
18.834205
18.844336
18.831742
18.796884
18.740223
18.662177
18.563083
18.443179
18.302583
18.141280
17.959111
17.755754
17.530719
17.283339
17.012762
16.717940
16.397626
16.050348
15.674394
15.267768
14.828118
14.352597
13.837570
13.278001
12.666114
11.988457
11.219419
10.306689
9.138057
7.463754
4.716128
-0.342193
-9.724239
-23.300568
-36.026072
-45.947962
-53.340700
-58.768186
-62.727820
-65.607535
-67.698258
-69.214670
-70.313975
-71.110807
-71.688532
-72.107663
-72.412065
-72.633494
-72.794922
-72.912954
-72.999583
-73.063471
-73.110871
-73.146296
-73.173006
-73.193354
-73.209044
-73.221307
-73.231035
-73.238876
-73.245301
-73.250656
-73.255190