# vtk DataFile Version 3.0
Example structured points dataset
ASCII

DATASET STRUCTURED_POINTS
DIMENSIONS 151 151 2
ORIGIN 0 0 0
SPACING 0.005000 0.005000 0.005000

POINT_DATA 45602
SCALARS Transmembrane_Potential float 1
LOOKUP_TABLE default
20.527766
20.528521
20.530836
20.534723
20.540086
20.546864
20.555032
20.564576
20.575472
20.587688
20.601186
20.615917
20.631831
20.648875
20.666991
20.686123
20.706217
20.727216
20.749068
20.771723
20.795132
20.819250
20.844034
20.869443
20.895439
20.921987
20.949055
20.976610
21.004624
21.033071
21.061926
21.091166
21.120769
21.150715
21.180988
21.211569
21.242443
21.273595
21.305012
21.336682
21.368595
21.400738
21.433103
21.465681
21.498464
21.531446
21.564619
21.597978
21.631517
21.665232
21.699118
21.733173
21.767392
21.801773
21.836313
21.871010
21.905864
21.940873
21.976036
22.011351
22.046819
22.082440
22.118215
22.154144
22.190229
22.226469
22.262866
22.299423
22.336142
22.373026
22.410075
22.447294
22.484684
22.522251
22.559997
22.597927
22.636045
22.674355
22.712861
22.751570
22.790486
22.829617
22.868968
22.908545
22.948354
22.988402
23.028699
23.069251
23.110068
23.151156
23.192524
23.234182
23.276140
23.318407
23.360995
23.403913
23.447171
23.490781
23.534754
23.579101
23.623836
23.668970
23.714514
23.760479
23.806878
23.853724
23.901029
23.948804
23.997061
24.045809
24.095059
24.144821
24.195105
24.245920
24.297271
24.349165
24.401603
24.454590
24.508126
24.562209
24.616834
24.671993
24.727671
24.783853
24.840518
24.897640
24.955186
25.013112
25.071367
25.129890
25.188606
25.247430
25.306255
25.364955
25.423378
25.481345
25.538643
25.595023
25.650187
25.703787
25.755418
25.804620
25.850877
25.893631
25.932286
25.966232
25.994875
26.017659
26.034197
26.044270
26.047659
20.528522
20.527822
20.529041
20.532050
20.536684
20.542845
20.550490
20.559587
20.570101
20.581993
20.595213
20.609709
20.625424
20.642299
20.660273
20.679287
20.699281
20.720198
20.741983
20.764584
20.787949
20.812034
20.836792
20.862182
20.888166
20.914707
20.941771
20.969328
20.997347
21.025802
21.054667
21.083920
21.113537
21.143500
21.173789
21.204389
21.235282
21.266454
21.297892
21.329583
21.361517
21.393682
21.426069
21.458669
21.491474
21.524478
21.557673
21.591054
21.624615
21.658351
21.692258
21.726334
21.760575
21.794976
21.829536
21.864254
21.899127
21.934156
21.969337
22.004672
22.040158
22.075798
22.111591
22.147538
22.183640
22.219898
22.256312
22.292886
22.329622
22.366522
22.403589
22.440823
22.478230
22.515812
22.553574
22.591520
22.629654
22.667980
22.706503
22.745227
22.784160
22.823307
22.862675
22.902268
22.942095
22.982161
23.022475
23.063047
23.103883
23.144992
23.186382
23.228062
23.270044
23.312336
23.354951
23.397898
23.441187
23.484829
23.528836
23.573221
23.617997
23.663174
23.708765
23.754780
23.801233
23.848137
23.895505
23.943349
23.991679
24.040507
24.089842
24.139696
24.190080
24.241002
24.292469
24.344487
24.397059
24.450189
24.503879
24.558127
24.612931
24.668279
24.724161
24.780561
24.837459
24.894830
24.952641
25.010850
25.069406
25.128248
25.187303
25.246485
25.305691
25.364791
25.423635
25.482042
25.539798
25.596652
25.652302
25.706394
25.758513
25.808185
25.854874
25.897993
25.936910
25.970966
25.999514
26.021922
26.037746
26.046662
26.048173
20.530837
20.529042
20.529297
20.531454
20.535359
20.540907
20.548038
20.556703
20.566853
20.578436
20.591395
20.605669
20.621196
20.637911
20.655750
20.674649
20.694546
20.715382
20.737099
20.759642
20.782961
20.807007
20.831734
20.857100
20.883065
20.909593
20.936649
20.964201
20.992218
21.020675
21.049545
21.078804
21.108430
21.138404
21.168706
21.199320
21.230228
21.261416
21.292871
21.324581
21.356533
21.388717
21.421124
21.453743
21.486569
21.519594
21.552811
21.586212
21.619794
21.653552
21.687481
21.721579
21.755841
21.790264
21.824846
21.859585
21.894481
21.929531
21.964734
22.000090
22.035598
22.071259
22.107074
22.143043
22.179166
22.215445
22.251881
22.288476
22.325233
22.362155
22.399242
22.436498
22.473926
22.511530
22.549313
22.587281
22.625437
22.663784
22.702328
22.741075
22.780030
22.819200
22.858591
22.898208
22.938058
22.978148
23.018488
23.059085
23.099948
23.141084
23.182502
23.224212
23.266224
23.308549
23.351197
23.394178
23.437504
23.481185
23.525233
23.569661
23.614483
23.659709
23.705351
23.751421
23.797933
23.844899
23.892334
23.940248
23.988654
24.037562
24.086984
24.136931
24.187413
24.238440
24.290020
24.342157
24.394857
24.448123
24.501958
24.556361
24.611329
24.666852
24.722918
24.779514
24.836620
24.894211
24.952254
25.010707
25.069520
25.128632
25.187970
25.247448
25.306961
25.366381
25.425555
25.484302
25.542406
25.599614
25.655621
25.710068
25.762532
25.812528
25.859503
25.902845
25.941886
25.975929
26.004286
26.026278
26.041448
26.049420
26.049681
20.534725
20.532053
20.531456
20.532827
20.536044
20.541012
20.547656
20.555912
20.565718
20.577009
20.589720
20.603782
20.619127
20.635686
20.653391
20.672173
20.691970
20.712720
20.734362
20.756841
20.780105
20.804103
20.828791
20.854124
20.880062
20.906567
20.933605
20.961143
20.989151
21.017602
21.046468
21.075727
21.105355
21.135333
21.165641
21.196263
21.227181
21.258380
21.289847
21.321570
21.353537
21.385737
21.418160
21.450797
21.483641
21.516684
21.549920
21.583341
21.616943
21.650722
21.684673
21.718792
21.753075
21.787520
21.822124
21.856886
21.891805
21.926878
21.962104
21.997483
22.033015
22.068700
22.104539
22.140532
22.176680
22.212983
22.249443
22.286063
22.322846
22.359792
22.396905
22.434186
22.471639
22.509269
22.547079
22.585073
22.623254
22.661628
22.700199
22.738973
22.777956
22.817155
22.856573
22.896219
22.936098
22.976219
23.016589
23.057218
23.098112
23.139281
23.180733
23.222477
23.264526
23.306888
23.349575
23.392596
23.435963
23.479688
23.523782
23.568259
23.613130
23.658409
23.704106
23.750234
23.796808
23.843840
23.891344
23.939331
23.987813
24.036803
24.086311
24.136349
24.186929
24.238059
24.289746
24.341998
24.394819
24.448214
24.502186
24.556733
24.611851
24.667533
24.723768
24.780540
24.837831
24.895616
24.953861
25.012525
25.071556
25.130895
25.190468
25.250188
25.309948
25.369620
25.429049
25.488053
25.546416
25.603879
25.660136
25.714822
25.767509
25.817700
25.864830
25.908266
25.947313
25.981245
26.009352
26.030930
26.045541
26.052762
26.052119
20.540092
20.536689
20.535363
20.536047
20.538653
20.543095
20.549292
20.557169
20.566651
20.577666
20.590139
20.603995
20.619160
20.635562
20.653128
20.671790
20.691479
20.712133
20.733690
20.756095
20.779293
20.803233
20.827870
20.853158
20.879057
20.905530
20.932539
20.960053
20.988042
21.016476
21.045330
21.074579
21.104201
21.134175
21.164482
21.195104
21.226025
21.257229
21.288703
21.320435
21.352411
21.384621
21.417057
21.449708
21.482566
21.515625
21.548877
21.582315
21.615936
21.649733
21.683704
21.717843
21.752147
21.786613
21.821239
21.856024
21.890965
21.926062
21.961312
21.996715
22.032272
22.067982
22.103846
22.139865
22.176038
22.212368
22.248855
22.285503
22.322313
22.359287
22.396427
22.433737
22.471219
22.508878
22.546717
22.584741
22.622952
22.661356
22.699958
22.738763
22.777778
22.817008
22.856459
22.896137
22.936050
22.976205
23.016611
23.057275
23.098205
23.139411
23.180900
23.222684
23.264773
23.307177
23.349906
23.392971
23.436383
23.480155
23.524299
23.568827
23.613751
23.659085
23.704839
23.751028
23.797665
23.844764
23.892338
23.940398
23.988956
24.038026
24.087619
24.137747
24.188421
24.239650
24.291441
24.343801
24.396737
24.450253
24.504351
24.559030
24.614287
24.670112
24.726497
24.783427
24.840882
24.898837
24.957256
25.016099
25.075315
25.134842
25.194608
25.254522
25.314477
25.374342
25.433963
25.493154
25.551699
25.609335
25.665752
25.720581
25.773388
25.823670
25.870849
25.914276
25.953240
25.986995
26.014817
26.036005
26.050140
26.056738
26.055403
20.546872
20.542853
20.540914
20.541017
20.543098
20.547077
20.552873
20.560402
20.569584
20.580337
20.592579
20.606233
20.621218
20.637459
20.654880
20.673411
20.692983
20.713530
20.734991
20.757309
20.780428
20.804298
20.828870
20.854101
20.879949
20.906376
20.933345
20.960824
20.988782
21.017190
21.046020
21.075250
21.104857
21.134818
21.165115
21.195730
21.226646
21.257849
21.289323
21.321056
21.353036
21.385252
21.417695
21.450355
21.483224
21.516293
21.549558
21.583010
21.616646
21.650460
21.684447
21.718604
21.752927
21.787413
21.822061
21.856867
21.891830
21.926949
21.962222
21.997650
22.033231
22.068967
22.104857
22.140902
22.177102
22.213459
22.249975
22.286651
22.323490
22.360492
22.397662
22.435002
22.472516
22.510206
22.548077
22.586131
22.624375
22.662812
22.701447
22.740287
22.779336
22.818600
22.858086
22.897800
22.937749
22.977942
23.018385
23.059087
23.100056
23.141301
23.182832
23.224658
23.266790
23.309237
23.352011
23.395122
23.438582
23.482403
23.526598
23.571179
23.616157
23.661546
23.707359
23.753610
23.800311
23.847476
23.895118
23.943250
23.991883
24.041031
24.090707
24.140921
24.191684
24.243006
24.294894
24.347356
24.400399
24.454027
24.508241
24.563040
24.618420
24.674375
24.730894
24.787963
24.845560
24.903660
24.962227
25.021221
25.080589
25.140271
25.200191
25.260257
25.320360
25.380367
25.440125
25.499445
25.558108
25.615848
25.672351
25.727244
25.780089
25.830377
25.877524
25.920867
25.959685
25.993220
26.020741
26.041571
26.055276
26.061334
26.059448
20.555044
20.550501
20.548049
20.547666
20.549299
20.552877
20.558316
20.565530
20.574433
20.584937
20.596956
20.610409
20.625211
20.641285
20.658554
20.676945
20.696388
20.716816
20.738169
20.760386
20.783413
20.807198
20.831693
20.856854
20.882637
20.909006
20.935923
20.963354
20.991269
21.019639
21.048436
21.077637
21.107217
21.137156
21.167435
21.198034
21.228938
21.260130
21.291597
21.323324
21.355302
21.387518
21.419962
21.452625
21.485498
21.518575
21.551848
21.585311
21.618958
21.652784
21.686785
21.720956
21.755296
21.789800
21.824465
21.859291
21.894274
21.929414
21.964709
22.000160
22.035766
22.071526
22.107441
22.143511
22.179738
22.216123
22.252667
22.289372
22.326239
22.363272
22.400472
22.437844
22.475389
22.513111
22.551014
22.589101
22.627378
22.665850
22.704520
22.743395
22.782479
22.821780
22.861302
22.901053
22.941041
22.981272
23.021755
23.062496
23.103505
23.144792
23.186365
23.228234
23.270410
23.312902
23.355721
23.398879
23.442388
23.486259
23.530505
23.575138
23.620171
23.665616
23.711487
23.757798
23.804562
23.851791
23.899499
23.947699
23.996405
24.045628
24.095382
24.145677
24.196524
24.247932
24.299910
24.352467
24.405608
24.459336
24.513654
24.568560
24.624051
24.680120
24.736757
24.793945
24.851664
24.909886
24.968577
25.027694
25.087186
25.146990
25.207029
25.267208
25.327418
25.387525
25.447373
25.506772
25.565498
25.623284
25.679812
25.734707
25.787527
25.837759
25.884812
25.928017
25.966647
25.999939
26.027154
26.047655
26.060944
26.066524
26.064192
20.564591
20.559602
20.556718
20.555927
20.557181
20.560412
20.565536
20.572464
20.581107
20.591375
20.603177
20.616429
20.631046
20.646948
20.664056
20.682297
20.701599
20.721897
20.743127
20.765231
20.788152
20.811839
20.836243
20.861320
20.887026
20.913323
20.940175
20.967546
20.995407
21.023727
21.052480
21.081640
21.111185
21.141092
21.171342
21.201917
21.232799
21.263972
21.295424
21.327139
21.359107
21.391315
21.423754
21.456414
21.489287
21.522365
21.555641
21.589109
21.622763
21.656597
21.690607
21.724791
21.759143
21.793661
21.828341
21.863183
21.898184
21.933343
21.968659
22.004130
22.039758
22.075540
22.111479
22.147574
22.183827
22.220238
22.256809
22.293542
22.330438
22.367500
22.404730
22.442132
22.479709
22.517462
22.555398
22.593519
22.631830
22.670336
22.709041
22.747951
22.787071
22.826407
22.865967
22.905756
22.945782
22.986052
23.026574
23.067355
23.108405
23.149734
23.191349
23.233261
23.275480
23.318017
23.360882
23.404087
23.447644
23.491564
23.535860
23.580544
23.625630
23.671130
23.717057
23.763426
23.810249
23.857539
23.905310
23.953576
24.002350
24.051644
24.101470
24.151839
24.202762
24.254250
24.306311
24.358953
24.412182
24.466000
24.520410
24.575410
24.630998
24.687166
24.743903
24.801192
24.859012
24.917335
24.976126
25.035342
25.094931
25.154827
25.214952
25.275211
25.335492
25.395661
25.455558
25.514993
25.573738
25.631522
25.688027
25.742875
25.795622
25.845751
25.892666
25.935698
25.974114
26.007152
26.034066
26.054254
26.067136
26.072298
26.069605
20.575491
20.570122
20.566874
20.565738
20.566670
20.569600
20.574444
20.581114
20.589515
20.599557
20.611148
20.624201
20.638629
20.654353
20.671292
20.689373
20.708525
20.728680
20.749776
20.771753
20.794555
20.818131
20.842431
20.867410
20.893026
20.919239
20.946013
20.973312
21.001107
21.029366
21.058062
21.087172
21.116670
21.146535
21.176747
21.207287
21.238139
21.269285
21.300713
21.332408
21.364358
21.396552
21.428979
21.461629
21.494495
21.527569
21.560842
21.594309
21.627964
21.661801
21.695817
21.730007
21.764368
21.798895
21.833587
21.868442
21.903458
21.938632
21.973965
22.009454
22.045101
22.080904
22.116864
22.152982
22.189258
22.225694
22.262290
22.299048
22.335972
22.373062
22.410321
22.447752
22.485358
22.523143
22.561110
22.599263
22.637608
22.676147
22.714885
22.753830
22.792985
22.832358
22.871954
22.911781
22.951844
22.992151
23.032712
23.073533
23.114623
23.155992
23.197649
23.239603
23.281864
23.324444
23.367354
23.410605
23.454208
23.498175
23.542518
23.587252
23.632388
23.677940
23.723920
23.770343
23.817221
23.864569
23.912399
23.960726
24.009562
24.058920
24.108812
24.159248
24.210242
24.261802
24.313937
24.366654
24.419959
24.473856
24.528345
24.583428
24.639098
24.695350
24.752169
24.809541
24.867443
24.925846
24.984716
25.044008
25.103668
25.163629
25.223812
25.284120
25.344442
25.404640
25.464552
25.523986
25.582711
25.640457
25.696901
25.751665
25.804302
25.854294
25.901043
25.943876
25.982064
26.014846
26.041474
26.061350
26.073855
26.078674
26.075692
20.587712
20.582018
20.578462
20.577035
20.577691
20.580359
20.584956
20.591389
20.599565
20.609391
20.620775
20.633629
20.647867
20.663408
20.680171
20.698084
20.717075
20.737077
20.758027
20.779866
20.802537
20.825989
20.850172
20.875041
20.900554
20.926671
20.953354
20.980570
21.008286
21.036472
21.065102
21.094149
21.123590
21.153403
21.183567
21.214063
21.244875
21.275986
21.307382
21.339048
21.370972
21.403143
21.435551
21.468185
21.501037
21.534098
21.567363
21.600823
21.634474
21.668309
21.702325
21.736516
21.770880
21.805413
21.840112
21.874976
21.910002
21.945188
21.980533
22.016037
22.051700
22.087520
22.123499
22.159636
22.195933
22.232390
22.269009
22.305791
22.342739
22.379855
22.417140
22.454599
22.492233
22.530047
22.568044
22.606228
22.644602
22.683173
22.721944
22.760922
22.800111
22.839518
22.879149
22.919010
22.959109
22.999453
23.040051
23.080910
23.122038
23.163446
23.205141
23.247135
23.289438
23.332059
23.375011
23.418304
23.461950
23.505961
23.550350
23.595130
23.640313
23.685913
23.731942
23.778415
23.825344
23.872744
23.920629
23.969011
24.017903
24.067318
24.117268
24.167765
24.218821
24.270444
24.322643
24.375425
24.428796
24.482759
24.537317
24.592468
24.648207
24.704526
24.761413
24.818850
24.876815
24.935280
24.994209
25.053554
25.113261
25.173263
25.233478
25.293811
25.354145
25.414344
25.474241
25.533643
25.592319
25.649996
25.706350
25.761002
25.813504
25.863334
25.909896
25.952519
25.990472
26.023002
26.049366
26.068934
26.081125
26.085696
26.082486
20.601214
20.595244
20.591428
20.589753
20.590171
20.592610
20.596984
20.603200
20.611165
20.620784
20.631967
20.644624
20.658670
20.674023
20.690606
20.708343
20.727165
20.747004
20.767798
20.789487
20.812016
20.835332
20.859387
20.884135
20.909533
20.935541
20.962122
20.989242
21.016869
21.044972
21.073523
21.102498
21.131871
21.161621
21.191727
21.222170
21.252933
21.283999
21.315353
21.346982
21.378872
21.411013
21.443393
21.476003
21.508834
21.541877
21.575126
21.608573
21.642213
21.676040
21.710049
21.744237
21.778599
21.813132
21.847833
21.882700
21.917731
21.952924
21.988279
22.023794
22.059468
22.095302
22.131295
22.167448
22.203761
22.240237
22.276876
22.313679
22.350648
22.387786
22.425095
22.462578
22.500238
22.538078
22.576102
22.614313
22.652716
22.691316
22.730118
22.769126
22.808346
22.847785
22.887448
22.927342
22.967474
23.007853
23.048485
23.089379
23.130543
23.171986
23.213718
23.255749
23.298089
23.340749
23.383740
23.427072
23.470758
23.514810
23.559240
23.604062
23.649288
23.694930
23.741004
23.787521
23.834497
23.881944
23.929876
23.978307
24.027248
24.076713
24.126715
24.177264
24.228373
24.280049
24.332303
24.385139
24.438566
24.492585
24.547199
24.602404
24.658197
24.714569
24.771507
24.828994
24.887006
24.945515
25.004481
25.063859
25.123593
25.183614
25.243840
25.304173
25.364496
25.424670
25.484527
25.543873
25.602476
25.660061
25.716304
25.770822
25.823169
25.872822
25.919187
25.961593
25.999314
26.031597
26.057718
26.077003
26.088975
26.093385
26.089978
20.615950
20.609746
20.605709
20.603823
20.604035
20.606272
20.610445
20.616462
20.624227
20.633648
20.644634
20.657096
20.670949
20.686113
20.702510
20.720066
20.738711
20.758379
20.779008
20.800539
20.822915
20.846085
20.870001
20.894616
20.919888
20.945777
20.972246
20.999259
21.026785
21.054793
21.083256
21.112147
21.141443
21.171120
21.201158
21.231538
21.262242
21.293254
21.324558
21.356141
21.387989
21.420091
21.452436
21.485014
21.517816
21.550833
21.584059
21.617486
21.651109
21.684921
21.718918
21.753096
21.787450
21.821977
21.856675
21.891540
21.926572
21.961767
21.997126
22.032646
22.068327
22.104169
22.140172
22.176337
22.212664
22.249154
22.285808
22.322628
22.359615
22.396772
22.434101
22.471605
22.509287
22.547150
22.585197
22.623433
22.661861
22.700488
22.739316
22.778351
22.817599
22.857066
22.896759
22.936683
22.976846
23.017255
23.057918
23.098843
23.140039
23.181515
23.223281
23.265346
23.307720
23.350413
23.393438
23.436806
23.480528
23.524616
23.569084
23.613942
23.659205
23.704886
23.750999
23.797556
23.844572
23.892060
23.940032
23.988504
24.037487
24.086996
24.137041
24.187635
24.238787
24.290507
24.342805
24.395686
24.449157
24.503221
24.557877
24.613125
24.668958
24.725368
24.782343
24.839864
24.897907
24.956441
25.015428
25.074821
25.134562
25.194583
25.254800
25.315113
25.375404
25.435531
25.495329
25.554599
25.613110
25.670585
25.726698
25.781068
25.833246
25.882715
25.928878
25.971069
26.008562
26.040608
26.066498
26.085549
26.097374
26.101617
26.098019
20.631869
20.625467
20.621243
20.619176
20.619210
20.621267
20.625258
20.631090
20.638668
20.647898
20.658692
20.670961
20.684622
20.699595
20.715803
20.733173
20.751636
20.771127
20.791583
20.812947
20.835162
20.858177
20.881944
20.906417
20.931553
20.957312
20.983657
21.010554
21.037969
21.065872
21.094236
21.123034
21.152241
21.181836
21.211796
21.242104
21.272740
21.303688
21.334933
21.366461
21.398258
21.430313
21.462615
21.495153
21.527918
21.560903
21.594098
21.627498
21.661096
21.694887
21.728865
21.763026
21.797366
21.831882
21.866570
21.901428
21.936454
21.971646
22.007003
22.042523
22.078206
22.114053
22.150061
22.186233
22.222568
22.259068
22.295733
22.332565
22.369566
22.406738
22.444083
22.481604
22.519303
22.557184
22.595252
22.633508
22.671959
22.710607
22.749458
22.788516
22.827789
22.867281
22.906999
22.946949
22.987138
23.027574
23.068264
23.109217
23.150442
23.191947
23.233741
23.275835
23.318238
23.360962
23.404018
23.447416
23.491169
23.535289
23.579788
23.624678
23.669973
23.715687
23.761833
23.808424
23.855473
23.902994
23.951001
23.999507
24.048525
24.098069
24.148149
24.198777
24.249964
24.301719
24.354051
24.406967
24.460471
24.514567
24.569254
24.624531
24.680392
24.736828
24.793826
24.851366
24.909423
24.967967
25.026958
25.086349
25.146082
25.206085
25.266275
25.326549
25.386790
25.446855
25.506576
25.565755
25.624158
25.681508
25.737479
25.791690
25.843694
25.892973
25.938934
25.980914
26.018189
26.050012
26.075676
26.094544
26.106207
26.110235
26.106462
20.648918
20.642348
20.637965
20.635743
20.635621
20.637518
20.641344
20.647003
20.654403
20.663452
20.674059
20.686139
20.699609
20.714390
20.730407
20.747588
20.765865
20.785173
20.805451
20.826640
20.848687
20.871539
20.895148
20.919470
20.944461
20.970081
20.996293
21.023063
21.050357
21.078146
21.106401
21.135096
21.164206
21.193709
21.223582
21.253808
21.284367
21.315243
21.346420
21.377884
21.409622
21.441621
21.473871
21.506361
21.539082
21.572026
21.605184
21.638549
21.672116
21.705877
21.739829
21.773967
21.808287
21.842784
21.877457
21.912301
21.947316
21.982498
22.017848
22.053363
22.089043
22.124887
22.160896
22.197069
22.233407
22.269912
22.306583
22.343423
22.380432
22.417614
22.454970
22.492503
22.530216
22.568113
22.606195
22.644468
22.682935
22.721601
22.760470
22.799549
22.838842
22.878354
22.918093
22.958065
22.998276
23.038734
23.079448
23.120424
23.161673
23.203201
23.245020
23.287138
23.329567
23.372316
23.415397
23.458821
23.502599
23.546745
23.591269
23.636186
23.681509
23.727249
23.773421
23.820038
23.867114
23.914662
23.962696
24.011230
24.060275
24.109845
24.159951
24.210605
24.261818
24.313599
24.365956
24.418895
24.472421
24.526538
24.581244
24.636539
24.692416
24.748864
24.805871
24.863415
24.921473
24.980013
25.038994
25.098368
25.158076
25.218046
25.278192
25.338413
25.398589
25.458577
25.518208
25.577282
25.635565
25.692779
25.748600
25.802647
25.854473
25.903562
25.949324
25.991096
26.028162
26.059778
26.085227
26.103933
26.115375
26.119187
26.115271
20.667038
20.660328
20.655811
20.653457
20.653198
20.654951
20.658625
20.664125
20.671357
20.680230
20.690656
20.702551
20.715832
20.730423
20.746248
20.763239
20.781327
20.800448
20.820542
20.841552
20.863423
20.886106
20.909550
20.933713
20.958550
20.984023
21.010094
21.036729
21.063894
21.091559
21.119696
21.148278
21.177282
21.206683
21.236460
21.266595
21.297068
21.327863
21.358963
21.390355
21.422025
21.453961
21.486151
21.518585
21.551254
21.584148
21.617260
21.650584
21.684111
21.717837
21.751756
21.785864
21.820156
21.854628
21.889278
21.924102
21.959099
21.994267
22.029603
22.065107
22.100777
22.136614
22.172617
22.208786
22.245123
22.281626
22.318298
22.355140
22.392153
22.429340
22.466703
22.504243
22.541965
22.579870
22.617963
22.656247
22.694727
22.733406
22.772290
22.811383
22.850690
22.890219
22.929974
22.969962
23.010191
23.050667
23.091399
23.132394
23.173661
23.215209
23.257046
23.299185
23.341633
23.384402
23.427503
23.470946
23.514745
23.558911
23.603456
23.648393
23.693736
23.739496
23.785688
23.832325
23.879421
23.926989
23.975043
24.023595
24.072659
24.122247
24.172371
24.223043
24.274273
24.326069
24.378441
24.431393
24.484931
24.539058
24.593773
24.649074
24.704954
24.761402
24.818405
24.875942
24.933987
24.992509
25.051467
25.110810
25.170479
25.230401
25.290491
25.350646
25.410745
25.470644
25.530173
25.589131
25.647285
25.704357
25.760023
25.813902
25.865549
25.914449
25.960014
26.001586
26.038450
26.069871
26.095129
26.113651
26.124869
26.128520
26.124498
20.686175
20.679348
20.674718
20.672249
20.671869
20.673494
20.677028
20.682379
20.689452
20.698158
20.708410
20.720124
20.733219
20.747621
20.763256
20.780056
20.797953
20.816885
20.836792
20.857618
20.879310
20.901816
20.925090
20.949087
20.973764
20.999082
21.025003
21.051494
21.078521
21.106055
21.134065
21.162527
21.191415
21.220706
21.250379
21.280414
21.310793
21.341497
21.372513
21.403824
21.435418
21.467281
21.499403
21.531773
21.564381
21.597219
21.630278
21.663552
21.697033
21.730716
21.764595
21.798665
21.832922
21.867362
21.901983
21.936781
21.971754
22.006899
22.042216
22.077702
22.113357
22.149180
22.185172
22.221331
22.257659
22.294156
22.330824
22.367662
22.404674
22.441860
22.479223
22.516766
22.554491
22.592400
22.630498
22.668789
22.707276
22.745963
22.784855
22.823957
22.863275
22.902814
22.942581
22.982581
23.022822
23.063311
23.104056
23.145064
23.186344
23.227906
23.269758
23.311910
23.354373
23.397156
23.440270
23.483729
23.527542
23.571722
23.616281
23.661232
23.706588
23.752362
23.798567
23.845217
23.892326
23.939906
23.987972
24.036535
24.085610
24.135208
24.185342
24.236023
24.287260
24.339063
24.391439
24.444395
24.497935
24.552062
24.606775
24.662071
24.717942
24.774379
24.831366
24.888883
24.946904
25.005396
25.064317
25.123617
25.183235
25.243099
25.303121
25.363199
25.423210
25.483009
25.542426
25.601262
25.659280
25.716206
25.771714
25.825423
25.876892
25.925606
25.970980
26.012358
26.049029
26.080263
26.105355
26.123679
26.134742
26.138321
26.134217
20.706273
20.699348
20.694623
20.692055
20.691570
20.693078
20.696485
20.701696
20.708620
20.717166
20.727249
20.738787
20.751701
20.765917
20.781363
20.797972
20.815678
20.834420
20.854138
20.874777
20.896285
20.918611
20.941709
20.965534
20.990045
21.015202
21.040967
21.067308
21.094190
21.121583
21.149459
21.177792
21.206557
21.235730
21.265290
21.295217
21.325493
21.356099
21.387021
21.418243
21.449752
21.481535
21.513581
21.545879
21.578419
21.611193
21.644191
21.677407
21.710834
21.744466
21.778297
21.812323
21.846539
21.880941
21.915525
21.950289
21.985231
22.020348
22.055638
22.091100
22.126733
22.162537
22.198511
22.234654
22.270968
22.307453
22.344109
22.380939
22.417943
22.455123
22.492481
22.530020
22.567742
22.605651
22.643749
22.682040
22.720529
22.759218
22.798114
22.837220
22.876543
22.916087
22.955860
22.995867
23.036114
23.076610
23.117362
23.158378
23.199667
23.241237
23.283097
23.325257
23.367728
23.410519
23.453643
23.497109
23.540930
23.585118
23.629685
23.674643
23.720006
23.765787
23.811999
23.858655
23.905769
23.953355
24.001424
24.049991
24.099069
24.148670
24.198805
24.249485
24.300720
24.352520
24.404893
24.457843
24.511375
24.565492
24.620192
24.675472
24.731324
24.787739
24.844700
24.902187
24.960172
25.018622
25.077495
25.136741
25.196298
25.256092
25.316037
25.376027
25.435940
25.495631
25.554931
25.613638
25.671518
25.728293
25.783641
25.837182
25.888473
25.937006
25.982196
26.023390
26.059880
26.090935
26.115868
26.134025
26.145021
26.148533
26.144335
20.727275
20.720271
20.715467
20.712814
20.712235
20.713638
20.716928
20.722010
20.728792
20.737186
20.747107
20.758475
20.771213
20.785246
20.800506
20.816926
20.834441
20.852992
20.872520
20.892970
20.914291
20.936434
20.959352
20.983002
21.007341
21.032331
21.057934
21.084118
21.110848
21.138095
21.165830
21.194027
21.222660
21.251707
21.281146
21.310958
21.341122
21.371623
21.402443
21.433569
21.464985
21.496680
21.528642
21.560860
21.593324
21.626025
21.658955
21.692106
21.725472
21.759046
21.792822
21.826796
21.860962
21.895318
21.929859
21.964583
21.999487
22.034569
22.069826
22.105257
22.140862
22.176639
22.212589
22.248710
22.285004
22.321470
22.358110
22.394924
22.431914
22.469082
22.506430
22.543959
22.581673
22.619575
22.657667
22.695953
22.734437
22.773124
22.812017
22.851122
22.890444
22.929988
22.969761
23.009768
23.050017
23.090515
23.131269
23.172287
23.213578
23.255150
23.297012
23.339175
23.381648
23.424442
23.467568
23.511036
23.554859
23.599048
23.643616
23.688575
23.733939
23.779720
23.825931
23.872586
23.919698
23.967281
24.015347
24.063911
24.112984
24.162578
24.212705
24.263377
24.314602
24.366391
24.418750
24.471685
24.525200
24.579297
24.633974
24.689228
24.745052
24.801435
24.858359
24.915804
24.973743
25.032142
25.090958
25.150140
25.209626
25.269342
25.329199
25.389094
25.448902
25.508480
25.567656
25.626231
25.683968
25.740591
25.795779
25.849152
25.900272
25.948630
25.993643
26.034663
26.070981
26.101871
26.126643
26.144687
26.155597
26.158975
26.154682
20.749131
20.742061
20.737191
20.734466
20.733804
20.735113
20.738295
20.743257
20.749906
20.758155
20.767921
20.779125
20.791691
20.805546
20.820623
20.836856
20.854183
20.872543
20.891881
20.912142
20.933275
20.955232
20.977967
21.001437
21.025601
21.050419
21.075856
21.101876
21.128449
21.155543
21.183130
21.211184
21.239680
21.268594
21.297905
21.327593
21.357640
21.388027
21.418738
21.449759
21.481075
21.512674
21.544544
21.576675
21.609055
21.641677
21.674530
21.707609
21.740906
21.774414
21.808127
21.842042
21.876153
21.910456
21.944947
21.979623
22.014482
22.049521
22.084739
22.120133
22.155703
22.191448
22.227366
22.263459
22.299726
22.336167
22.372783
22.409576
22.446547
22.483696
22.521027
22.558541
22.596241
22.634129
22.672209
22.710485
22.748960
22.787637
22.826522
22.865620
22.904935
22.944473
22.984240
23.024242
23.064487
23.104980
23.145730
23.186744
23.228031
23.269599
23.311458
23.353617
23.396087
23.438877
23.481998
23.525462
23.569280
23.613465
23.658028
23.702981
23.748339
23.794112
23.840316
23.886962
23.934066
23.981639
24.029695
24.078246
24.127306
24.176886
24.226998
24.277653
24.328860
24.380629
24.432966
24.485876
24.539365
24.593432
24.648078
24.703298
24.759084
24.815424
24.872302
24.929697
24.987581
25.045919
25.104668
25.163778
25.223184
25.282813
25.342576
25.402369
25.462067
25.521527
25.580575
25.639013
25.696605
25.753077
25.808106
25.861316
25.912268
25.960456
26.005300
26.046151
26.082309
26.113048
26.137667
26.155613
26.166364
26.169602
26.165242
20.771788
20.764667
20.759742
20.756954
20.756220
20.757444
20.760528
20.765378
20.771902
20.780014
20.789632
20.800678
20.813077
20.826760
20.841658
20.857708
20.874848
20.893020
20.912168
20.932239
20.953184
20.974954
20.997504
21.020792
21.044777
21.069420
21.094685
21.120539
21.146948
21.173884
21.201317
21.229222
21.257574
21.286348
21.315525
21.345083
21.375004
21.405270
21.435865
21.466774
21.497983
21.529479
21.561250
21.593285
21.625575
21.658109
21.690879
21.723878
21.757098
21.790533
21.824178
21.858026
21.892074
21.926316
21.960750
21.995372
22.030179
22.065169
22.100340
22.135690
22.171219
22.206923
22.242805
22.278862
22.315096
22.351506
22.388093
22.424858
22.461802
22.498927
22.536235
22.573727
22.611406
22.649276
22.687338
22.725597
22.764055
22.802718
22.841589
22.880673
22.919975
22.959501
22.999257
23.039248
23.079482
23.119965
23.160704
23.201709
23.242986
23.284545
23.326394
23.368543
23.411003
23.453783
23.496894
23.540347
23.584154
23.628327
23.672878
23.717819
23.763163
23.808923
23.855112
23.901744
23.948831
23.996386