# vtk DataFile Version 3.0
Example structured points dataset
ASCII

DATASET STRUCTURED_POINTS
DIMENSIONS 151 151 2
ORIGIN 0 0 0
SPACING 0.005000 0.005000 0.005000

POINT_DATA 45602
SCALARS Transmembrane_Potential float 1
LOOKUP_TABLE default
18.469327
18.469922
18.471749
18.474813
18.479012
18.484278
18.490584
18.497911
18.506236
18.515529
18.525754
18.536871
18.548836
18.561602
18.575124
18.589357
18.604254
18.619774
18.635875
18.652519
18.669669
18.687292
18.705357
18.723834
18.742696
18.761919
18.781480
18.801358
18.821534
18.841991
18.862711
18.883681
18.904887
18.926315
18.947956
18.969799
18.991833
19.014051
19.036443
19.059005
19.081728
19.104606
19.127635
19.150808
19.174123
19.197574
19.221159
19.244874
19.268715
19.292681
19.316769
19.340979
19.365307
19.389752
19.414314
19.438990
19.463782
19.488688
19.513709
19.538842
19.564090
19.589451
19.614928
19.640520
19.666227
19.692051
19.717992
19.744052
19.770232
19.796533
19.822958
19.849505
19.876179
19.902979
19.929909
19.956970
19.984165
20.011494
20.038960
20.066565
20.094312
20.122202
20.150239
20.178424
20.206758
20.235245
20.263887
20.292687
20.321646
20.350767
20.380052
20.409502
20.439120
20.468908
20.498868
20.529002
20.559310
20.589793
20.620453
20.651292
20.682309
20.713505
20.744880
20.776432
20.808162
20.840068
20.872148
20.904401
20.936823
20.969411
21.002159
21.035064
21.068119
21.101319
21.134655
21.168118
21.201698
21.235384
21.269164
21.303023
21.336947
21.370916
21.404912
21.438912
21.472892
21.506826
21.540683
21.574431
21.608029
21.641438
21.674608
21.707488
21.740018
21.772129
21.803742
21.834769
21.865107
21.894640
21.923234
21.950735
21.976969
22.001739
22.024829
22.046007
22.065026
22.081632
22.095580
22.106639
22.114638
22.119489
22.121118
18.469921
18.469425
18.470443
18.472866
18.476539
18.481365
18.487301
18.494316
18.502378
18.511449
18.521488
18.532448
18.544281
18.556938
18.570369
18.584526
18.599361
18.614830
18.630889
18.647499
18.664623
18.682225
18.700273
18.718738
18.737592
18.756810
18.776368
18.796246
18.816424
18.836883
18.857609
18.878585
18.899797
18.921234
18.942883
18.964735
18.986780
19.009008
19.031412
19.053984
19.076719
19.099610
19.122651
19.145837
19.169164
19.192628
19.216226
19.239954
19.263808
19.287787
19.311889
19.336112
19.360454
19.384913
19.409488
19.434179
19.458985
19.483905
19.508940
19.534089
19.559351
19.584727
19.610219
19.635826
19.661549
19.687389
19.713347
19.739423
19.765620
19.791938
19.818380
19.844946
19.871638
19.898458
19.925407
19.952489
19.979705
20.007056
20.034544
20.062172
20.089942
20.117858
20.145920
20.174132
20.202494
20.231010
20.259682
20.288513
20.317506
20.346661
20.375982
20.405469
20.435126
20.464954
20.494957
20.525135
20.555490
20.586022
20.616733
20.647625
20.678697
20.709952
20.741388
20.773004
20.804801
20.836776
20.868930
20.901259
20.933761
20.966432
20.999267
21.032263
21.065413
21.098712
21.132151
21.165722
21.199414
21.233217
21.267118
21.301104
21.335159
21.369266
21.403404
21.437551
21.471684
21.505776
21.539798
21.573715
21.607489
21.641078
21.674435
21.707507
21.740235
21.772548
21.804369
21.835606
21.866158
21.895905
21.924713
21.952424
21.978859
22.003816
22.027071
22.048377
22.067473
22.084086
22.097946
22.108791
22.116419
22.120696
22.121422
18.471748
18.470442
18.470748
18.472538
18.475671
18.480048
18.485613
18.492319
18.500123
18.508979
18.518836
18.529642
18.541346
18.553892
18.567229
18.581305
18.596071
18.611480
18.627488
18.644054
18.661140
18.678710
18.696730
18.715171
18.734004
18.753204
18.772748
18.792614
18.812781
18.833233
18.853951
18.874922
18.896131
18.917565
18.939214
18.961066
18.983111
19.005340
19.027746
19.050322
19.073061
19.095956
19.119001
19.142192
19.165525
19.188996
19.212600
19.236335
19.260197
19.284184
19.308294
19.332526
19.356876
19.381345
19.405929
19.430630
19.455446
19.480377
19.505422
19.530582
19.555855
19.581244
19.606748
19.632368
19.658104
19.683957
19.709928
19.736019
19.762231
19.788565
19.815023
19.841605
19.868314
19.895151
19.922119
19.949220
19.976455
20.003827
20.031336
20.058986
20.086780
20.114720
20.142807
20.171045
20.199435
20.227979
20.256681
20.285543
20.314568
20.343757
20.373113
20.402637
20.432333
20.462202
20.492247
20.522469
20.552870
20.583450
20.614212
20.645156
20.676285
20.707597
20.739093
20.770773
20.802635
20.834679
20.866904
20.899308
20.931888
20.964640
20.997560
21.030644
21.063886
21.097280
21.130819
21.164493
21.198292
21.232206
21.266222
21.300327
21.334506
21.368740
21.403009
21.437292
21.471565
21.505801
21.539970
21.574039
21.607968
21.641715
21.675233
21.708468
21.741361
21.773842
21.805830
21.837234
21.867951
21.897862
21.926828
21.954691
21.981268
22.006351
22.029707
22.051082
22.070198
22.086766
22.100498
22.111113
22.118400
22.122207
22.122324
18.474810
18.472864
18.472537
18.473736
18.476353
18.480299
18.485504
18.491912
18.499466
18.508110
18.517787
18.528439
18.540008
18.552438
18.565673
18.579658
18.594344
18.609682
18.625626
18.642135
18.659168
18.676691
18.694669
18.713071
18.731870
18.751039
18.770554
18.790394
18.810538
18.830969
18.851669
18.872623
18.893816
18.915237
18.936874
18.958715
18.980751
19.002972
19.025372
19.047942
19.070676
19.093567
19.116609
19.139798
19.163130
19.186600
19.210205
19.233940
19.257804
19.281793
19.305906
19.330141
19.354496
19.378968
19.403558
19.428264
19.453086
19.478024
19.503077
19.528244
19.553525
19.578923
19.604436
19.630066
19.655812
19.681676
19.707659
19.733762
19.759986
19.786334
19.812805
19.839402
19.866126
19.892980
19.919965
19.947083
19.974337
20.001728
20.029257
20.056929
20.084745
20.112708
20.140820
20.169083
20.197499
20.226071
20.254802
20.283695
20.312752
20.341974
20.371364
20.400925
20.430659
20.460569
20.490655
20.520921
20.551367
20.581995
20.612807
20.643804
20.674986
20.706356
20.737911
20.769652
20.801578
20.833690
20.865986
20.898463
20.931119
20.963950
20.996952
21.030121
21.063452
21.096938
21.130572
21.164344
21.198246
21.232265
21.266390
21.300608
21.334902
21.369255
21.403646
21.438054
21.472454
21.506821
21.541123
21.575327
21.609392
21.643277
21.676934
21.710309
21.743340
21.775957
21.808079
21.839615
21.870459
21.900491
21.929570
21.957537
21.984203
22.009358
22.032763
22.054153
22.073242
22.089726
22.103310
22.113701
22.120695
22.124127
22.123799
18.479007
18.476535
18.475667
18.476351
18.478508
18.482059
18.486930
18.493054
18.500366
18.508802
18.518298
18.528792
18.540220
18.552524
18.565645
18.579528
18.594119
18.609370
18.625235
18.641670
18.658636
18.676096
18.694016
18.712364
18.731113
18.750236
18.769708
18.789508
18.809615
18.830012
18.850680
18.871605
18.892771
18.914168
18.935781
18.957601
18.979618
19.001822
19.024205
19.046761
19.069481
19.092360
19.115392
19.138572
19.161895
19.185358
19.208956
19.232686
19.256545
19.280531
19.304642
19.328875
19.353228
19.377700
19.402290
19.426998
19.451822
19.476763
19.501818
19.526989
19.552276
19.577679
19.603198
19.628835
19.654589
19.680461
19.706453
19.732566
19.758801
19.785159
19.811642
19.838252
19.864990
19.891858
19.918858
19.945993
19.973263
20.000672
20.028220
20.055912
20.083750
20.111735
20.139869
20.168156
20.196598
20.225197
20.253957
20.282880
20.311967
20.341222
20.370646
20.400243
20.430015
20.459964
20.490091
20.520400
20.550890
20.581565
20.612426
20.643474
20.674710
20.706135
20.737747
20.769549
20.801538
20.833716
20.866080
20.898628
20.931357
20.964264
20.997345
21.030597
21.064014
21.097588
21.131313
21.165179
21.199177
21.233296
21.267524
21.301848
21.336250
21.370713
21.405216
21.439739
21.474257
21.508742
21.543164
21.577487
21.611673
21.645678
21.679455
21.712947
21.746093
21.778821
21.811050
21.842687
21.873625
21.903743
21.932898
21.960927
21.987641
22.012825
22.036236
22.057601
22.076628
22.093005
22.106431
22.116614
22.123361
22.126487
22.125814
18.484271
18.481358
18.480042
18.480294
18.482056
18.485257
18.489824
18.495683
18.502764
18.510995
18.520309
18.530637
18.541917
18.554083
18.567077
18.580842
18.595324
18.610473
18.626241
18.642587
18.659468
18.676848
18.694694
18.712973
18.731656
18.750717
18.770131
18.789877
18.809934
18.830283
18.850906
18.871789
18.892917
18.914277
18.935857
18.957645
18.979632
19.001809
19.024168
19.046699
19.069398
19.092256
19.115270
19.138433
19.161741
19.185189
19.208774
19.232492
19.256341
19.280318
19.304420
19.328646
19.352993
19.377460
19.402047
19.426751
19.451573
19.476512
19.501567
19.526738
19.552027
19.577432
19.602954
19.628594
19.654353
19.680230
19.706229
19.732349
19.758592
19.784959
19.811452
19.838072
19.864822
19.891703
19.918717
19.945866
19.973151
20.000576
20.028143
20.055853
20.083710
20.111716
20.139872
20.168182
20.196649
20.225274
20.254061
20.283012
20.312129
20.341415
20.370873
20.400505
20.430313
20.460300
20.490467
20.520816
20.551351
20.582071
20.612980
20.644078
20.675365
20.706843
20.738512
20.770372
20.802424
20.834665
20.867094
20.899710
20.932510
20.965491
20.998649
21.031979
21.065477
21.099136
21.132946
21.166901
21.200991
21.235205
21.269530
21.303952
21.338454
21.373019
21.407626
21.442255
21.476879
21.511472
21.546000
21.580429
21.614721
21.648830
21.682709
21.716300
21.749541
21.782357
21.814669
21.846381
21.877387
21.907562
21.936762
21.964822
21.991550
22.016730
22.040114
22.061426
22.080368
22.096626
22.109893
22.119887
22.126417
22.129281
22.128330
18.490573
18.487290
18.485603
18.485497
18.486924
18.489821
18.494114
18.499727
18.506586
18.514616
18.523745
18.533903
18.545023
18.557040
18.569894
18.583526
18.597883
18.612913
18.628569
18.644808
18.661588
18.678873
18.696628
18.714821
18.733423
18.752408
18.771750
18.791428
18.811420
18.831708
18.852274
18.873104
18.894181
18.915493
18.937028
18.958774
18.980722
19.002862
19.025186
19.047685
19.070353
19.093184
19.116171
19.139309
19.162594
19.186021
19.209587
19.233288
19.257120
19.281082
19.305170
19.329383
19.353719
19.378176
19.402754
19.427451
19.452266
19.477199
19.502250
19.527419
19.552705
19.578108
19.603630
19.629271
19.655031
19.680912
19.706914
19.733038
19.759287
19.785660
19.812161
19.838790
19.865549
19.892440
19.919465
19.946626
19.973925
20.001365
20.028948
20.056675
20.084550
20.112575
20.140752
20.169084
20.197573
20.226223
20.255036
20.284014
20.313159
20.342475
20.371965
20.401630
20.431473
20.461496
20.491702
20.522091
20.552668
20.583433
20.614387
20.645533
20.676870
20.708400
20.740123
20.772040
20.804150
20.836452
20.868945
20.901626
20.934493
20.967545
21.000776
21.034182
21.067757
21.101494
21.135387
21.169426
21.203602
21.237904
21.272319
21.306832
21.341427
21.376087
21.410790
21.445515
21.480235
21.514923
21.549547
21.584070
21.618454
21.652653
21.686618
21.720291
21.753608
21.786495
21.818869
21.850636
21.881686
21.911894
21.941115
21.969180
21.995898
22.021049
22.044383
22.065623
22.084467
22.100598
22.113711
22.123533
22.129864
22.132493
22.131315
18.497896
18.494301
18.492306
18.491901
18.493045
18.495677
18.499724
18.505110
18.511756
18.519588
18.528530
18.538512
18.549463
18.561320
18.574021
18.587507
18.601723
18.616618
18.632146
18.648262
18.664926
18.682099
18.699748
18.717840
18.736346
18.755240
18.774495
18.794091
18.814006
18.834220
18.854717
18.875481
18.896496
18.917749
18.939229
18.960923
18.982821
19.004915
19.027194
19.049653
19.072282
19.095077
19.118030
19.141136
19.164391
19.187790
19.211330
19.235007
19.258816
19.282757
19.306826
19.331021
19.355341
19.379784
19.404348
19.429032
19.453836
19.478760
19.503803
19.528964
19.554244
19.579643
19.605161
19.630799
19.656558
19.682438
19.708441
19.734567
19.760818
19.787196
19.813701
19.840337
19.867103
19.894002
19.921036
19.948208
19.975519
20.002972
20.030568
20.058310
20.086201
20.114243
20.142439
20.170791
20.199303
20.227975
20.256812
20.285815
20.314987
20.344332
20.373852
20.403549
20.433425
20.463482
20.493724
20.524153
20.554770
20.585576
20.616575
20.647766
20.679151
20.710731
20.742506
20.774477
20.806643
20.839003
20.871555
20.904299
20.937232
20.970350
21.003650
21.037126
21.070774
21.104587
21.138556
21.172675
21.206932
21.241316
21.275815
21.310412
21.345093
21.379839
21.414630
21.449442
21.484249
21.519022
21.553730
21.588336
21.622799
21.657076
21.691113
21.724852
21.758230
21.791171
21.823591
21.855395
21.886472
21.916693
21.945914
21.973965
22.000654
22.025759
22.049029
22.070185
22.088922
22.104928
22.117891
22.127556
22.133694
22.136114
22.134748
18.506216
18.502358
18.500106
18.499451
18.500353
18.502753
18.506579
18.511753
18.518196
18.525833
18.534587
18.544386
18.555161
18.566848
18.579383
18.592709
18.606771
18.621518
18.636903
18.652882
18.669413
18.686460
18.703988
18.721965
18.740361
18.759149
18.778305
18.797806
18.817630
18.837759
18.858174
18.878861
18.899803
18.920987
18.942401
18.964032
18.985872
19.007910
19.030137
19.052546
19.075128
19.097878
19.120789
19.143857
19.167075
19.190440
19.213947
19.237592
19.261373
19.285287
19.309332
19.333504
19.357802
19.382225
19.406771
19.431438
19.456228
19.481138
19.506168
19.531318
19.556588
19.581978
19.607489
19.633122
19.658876
19.684752
19.710753
19.736878
19.763129
19.789508
19.816016
19.842654
19.869425
19.896330
19.923372
19.950552
19.977872
20.005335
20.032943
20.060698
20.088604
20.116661
20.144874
20.173245
20.201775
20.230468
20.259327
20.288354
20.317552
20.346924
20.376471
20.406197
20.436105
20.466195
20.496472
20.526937
20.557592
20.588438
20.619478
20.650712
20.682143
20.713771
20.745595
20.777617
20.809836
20.842251
20.874860
20.907664
20.940657
20.973839
21.007203
21.040747
21.074463
21.108346
21.142388
21.176580
21.210913
21.245373
21.279948
21.314624
21.349384
21.384209
21.419078
21.453968
21.488853
21.523702
21.558484
21.593162
21.627695
21.662035
21.696132
21.729926
21.763351
21.796332
21.828784
21.860610
21.891697
21.921918
21.951124
21.979148
22.005795
22.030842
22.054037
22.075101
22.093730
22.109611
22.122436
22.131949
22.137905
22.140147
22.138628
18.515503
18.511424
18.508956
18.508090
18.508785
18.510981
18.514605
18.519580
18.525829
18.533273
18.541837
18.551450
18.562043
18.573550
18.585909
18.599064
18.612960
18.627545
18.642774
18.658602
18.674988
18.691895
18.709288
18.727136
18.745409
18.764080
18.783123
18.802516
18.822238
18.842269
18.862592
18.883190
18.904048
18.925152
18.946490
18.968050
18.989822
19.011795
19.033961
19.056312
19.078839
19.101537
19.124400
19.147421
19.170595
19.193918
19.217386
19.240995
19.264742
19.288624
19.312637
19.336781
19.361053
19.385450
19.409973
19.434620
19.459390
19.484281
19.509295
19.534430
19.559686
19.585065
19.610565
19.636188
19.661934
19.687803
19.713798
19.739919
19.766168
19.792545
19.819052
19.845692
19.872464
19.899373
19.926419
19.953605
19.980932
20.008404
20.036021
20.063787
20.091705
20.119776
20.148004
20.176390
20.204938
20.233650
20.262529
20.291577
20.320799
20.350195
20.379768
20.409522
20.439458
20.469580
20.499889
20.530388
20.561078
20.591962
20.623041
20.654317
20.685790
20.717462
20.749333
20.781403
20.813672
20.846138
20.878802
20.911661
20.944712
20.977952
21.011378
21.044983
21.078764
21.112713
21.146822
21.181083
21.215484
21.250014
21.284660
21.319408
21.354240
21.389137
21.424077
21.459037
21.493991
21.528908
21.563755
21.598495
21.633086
21.667480
21.701625
21.735462
21.768923
21.801933
21.834405
21.866240
21.897325
21.927533
21.956715
21.984701
22.011296
22.036277
22.059392
22.080361
22.098882
22.114645
22.127341
22.136710
22.142506
22.144612
22.142970
18.525722
18.521457
18.518807
18.517761
18.518276
18.520289
18.523729
18.528518
18.534579
18.541833
18.550208
18.559631
18.570035
18.581356
18.593531
18.606505
18.620224
18.634636
18.649697
18.665361
18.681590
18.698345
18.715592
18.733299
18.751436
18.769977
18.788896
18.808170
18.827779
18.847701
18.867921
18.888420
18.909184
18.930199
18.951452
18.972931
18.994625
19.016525
19.038621
19.060906
19.083371
19.106009
19.128815
19.151783
19.174906
19.198182
19.221604
19.245171
19.268877
19.292721
19.316698
19.340808
19.365048
19.389417
19.413912
19.438532
19.463278
19.488147
19.513140
19.538256
19.563495
19.588857
19.614343
19.639953
19.665687
19.691547
19.717533
19.743647
19.769890
19.796262
19.822766
19.849403
19.876176
19.903085
19.930133
19.957322
19.984654
20.012131
20.039756
20.067531
20.095458
20.123540
20.151780
20.180180
20.208743
20.237472
20.266369
20.295437
20.324679
20.354097
20.383694
20.413473
20.443437
20.473587
20.503926
20.534456
20.565180
20.596098
20.627214
20.658528
20.690041
20.721755
20.753669
20.785784
20.818099
20.850615
20.883329
20.916240
20.949344
20.982639
21.016121
21.049785
21.083626
21.117635
21.151806
21.186129
21.220594
21.255189
21.289901
21.324714
21.359611
21.394572
21.429576
21.464599
21.499613
21.534590
21.569493
21.604286
21.638925
21.673364
21.707548
21.741418
21.774906
21.807934
21.840414
21.872249
21.903324
21.933510
21.962659
21.990600
22.017137
22.042048
22.065080
22.085955
22.104372
22.120021
22.132601
22.141837
22.147513
22.149527
22.147782
18.536831
18.532410
18.529608
18.528407
18.528764
18.530613
18.533882
18.538495
18.544373
18.551442
18.559627
18.568859
18.579070
18.590199
18.602183
18.614968
18.628501
18.642731
18.657614
18.673105
18.689165
18.705757
18.722846
18.740401
18.758392
18.776792
18.795576
18.814721
18.834205
18.854009
18.874115
18.894506
18.915167
18.936083
18.957241
18.978631
19.000239
19.022058
19.044077
19.066287
19.088682
19.111254
19.133996
19.156903
19.179970
19.203191
19.226562
19.250079
19.273740
19.297539
19.321476
19.345547
19.369750
19.394084
19.418546
19.443136
19.467853
19.492696
19.517664
19.542757
19.567974
19.593317
19.618784
19.644377
19.670097
19.695944
19.721918
19.748021
19.774254
19.800619
19.827117
19.853750
19.880519
19.907426
19.934473
19.961663
19.988996
20.016477
20.044107
20.071887
20.099822
20.127913
20.156162
20.184574
20.213150
20.241893
20.270806
20.299890
20.329151
20.358589
20.388208
20.418010
20.447998
20.478173
20.508540
20.539099
20.569853
20.600804
20.631954
20.663303
20.694853
20.726605
20.758559
20.790716
20.823075
20.855636
20.888396
20.921355
20.954509
20.987855
21.021390
21.055107
21.089003
21.123068
21.157296
21.191676
21.226200
21.260854
21.295625
21.330496
21.365451
21.400470
21.435531
21.470610
21.505678
21.540706
21.575657
21.610495
21.645175
21.679650
21.713865
21.747759
21.781264
21.814301
21.846783
21.878609
21.909667
21.939825
21.968935
21.996826
22.023301
22.048139
22.071089
22.091873
22.110190
22.125733
22.138205
22.147328
22.152922
22.154855
22.153014
18.548787
18.544236
18.541304
18.539970
18.540186
18.541886
18.544997
18.549442
18.555144
18.562030
18.570027
18.579066
18.589083
18.600015
18.611803
18.624393
18.637733
18.651773
18.666469
18.681778
18.697660
18.714080
18.731002
18.748395
18.766230
18.784480
18.803119
18.822125
18.841476
18.861152
18.881135
18.901408
18.921956
18.942765
18.963821
18.985112
19.006627
19.028356
19.050290
19.072419
19.094736
19.117234
19.139906
19.162747
19.185749
19.208910
19.232223
19.255686
19.279295
19.303045
19.326935
19.350962
19.375123
19.399417
19.423843
19.448398
19.473082
19.497893
19.522832
19.547897
19.573089
19.598408
19.623854
19.649428
19.675129
19.700958
19.726917
19.753006
19.779228
19.805582
19.832071
19.858695
19.885458
19.912360
19.939404
19.966591
19.993924
20.021406
20.049037
20.076821
20.104760
20.132857
20.161115
20.189535
20.218122
20.246876
20.275801
20.304901
20.334177
20.363633
20.393271
20.423093
20.453102
20.483301
20.513692
20.544278
20.575060
20.606040
20.637220
20.668602
20.700186
20.731973
20.763965
20.796160
20.828559
20.861161
20.893964
20.926967
20.960167
20.993560
21.027143
21.060910
21.094855
21.128971
21.163251
21.197685
21.232262
21.266969
21.301792
21.336717
21.371724
21.406795
21.441906
21.477034
21.512149
21.547220
21.582212
21.617087
21.651801
21.686304
21.720542
21.754453
21.787968
21.821008
21.853484
21.885297
21.916331
21.946456
21.975522
22.003359
22.029772
22.054537
22.077407
22.098103
22.116327
22.131772
22.144143
22.153174
22.158694
22.160531
22.158600
18.561544
18.556884
18.553842
18.552392
18.552483
18.554047
18.557009
18.561293
18.566825
18.573532
18.581342
18.590190
18.600010
18.610743
18.622332
18.634722
18.647863
18.661708
18.676210
18.691330
18.707027
18.723266
18.740013
18.757236
18.774907
18.792997
18.811483
18.830341
18.849550
18.869089
18.888941
18.909089
18.929516
18.950209
18.971155
18.992340
19.013754
19.035386
19.057227
19.079268
19.101501
19.123918
19.146513
19.169280
19.192213
19.215307
19.238557
19.261960
19.285511
19.309207
19.333044
19.357022
19.381137
19.405387
19.429770
19.454285
19.478931
19.503708
19.528613
19.553647
19.578810
19.604102
19.629522
19.655071
19.680750
19.706559
19.732500
19.758572
19.784778
19.811118
19.837594
19.864208
19.890962
19.917856
19.944893
19.972076
19.999405
20.026884
20.054515
20.082300
20.110241
20.138342
20.166604
20.195031
20.223625
20.252388
20.281324
20.310436
20.339726
20.369196
20.398850
20.428689
20.458718
20.488937
20.519351
20.549960
20.580767
20.611773
20.642981
20.674392
20.706006
20.737826
20.769851
20.802082
20.834517
20.867157
20.899999
20.933042
20.966284
20.999720
21.033346
21.067158
21.101149
21.135312
21.169639
21.204120
21.238744
21.273499
21.308370
21.343342
21.378396
21.413512
21.448668
21.483837
21.518992
21.554101
21.589128
21.624034
21.658774
21.693299
21.727554
21.761475
21.794993
21.828030
21.860496
21.892289
21.923296
21.953384
21.982404
22.010187
22.036536
22.061231
22.084022
22.104635
22.122771
22.138126
22.150403
22.159357
22.164783
22.166517
22.164509
18.575056
18.570305
18.567170
18.565619
18.565597
18.567034
18.569856
18.573988
18.579355
18.585887
18.593514
18.602170
18.611794
18.622328
18.633715
18.645902
18.658841
18.672485
18.686789
18.701713
18.717219
18.733271
18.749836
18.766881
18.784380
18.802304
18.820629
18.839332
18.858390
18.877786
18.897499
18.917513
18.937812
18.958382
18.979209
19.000281
19.021587
19.043115
19.064857
19.086803
19.108945
19.131275
19.153787
19.176475
19.199332
19.222354
19.245535
19.268871
19.292359
19.315995
19.339776
19.363700
19.387763
19.411963
19.436300
19.460771
19.485375
19.510112
19.534980
19.559979
19.585109
19.610369
19.635760
19.661282
19.686935
19.712720
19.738639
19.764690
19.790877
19.817200
19.843661
19.870261
19.897002
19.923886
19.950914
19.978088
20.005411
20.032885
20.060513
20.088296
20.116236
20.144338
20.172602
20.201032
20.229631
20.258401
20.287345
20.316466
20.345766
20.375248
20.404915
20.434770
20.464815
20.495053
20.525485
20.556114
20.586943
20.617972
20.649205
20.680642
20.712285
20.744133
20.776188
20.808450
20.840918
20.873592
20.906470
20.939550
20.972829
21.006304
21.039970
21.073822
21.107854
21.142059
21.176428
21.210952
21.245619
21.280416
21.315330
21.350343
21.385438
21.420594
21.455788
21.490994
21.526182
21.561323
21.596378
21.631309
21.666070
21.700611
21.734875
21.768802
21.802319
21.835348
21.867799
21.899569
21.930544
21.960593
21.989567
22.017294
22.043582
22.068208
22.090924
22.111457
22.129511
22.144783
22.156977
22.165850
22.171175
22.172823
22.170756
18.589276
18.584451
18.581236
18.579596
18.579471
18.580791
18.583482
18.587468
18.592676
18.599036
18.606483
18.614951
18.624380
18.634714
18.645898
18.657882
18.670616
18.684056
18.698158
18.712883
18.728193
18.744053
18.760429
18.777291
18.794612
18.812363
18.830520
18.849060
18.867963
18.887207
18.906774
18.926648
18.946812
18.967252
18.987955
19.008907
19.030098
19.051516
19.073151
19.094996
19.117041
19.139278
19.161701
19.184303
19.207079
19.230022
19.253129
19.276394
19.299814
19.323385
19.347104
19.370968
19.394975
19.419122
19.443408
19.467831
19.492389
19.517082
19.541908
19.566868
19.591960
19.617185
19.642543
19.668034
19.693658
19.719415
19.745308
19.771336
19.797501
19.823804
19.850246
19.876829
19.903554
19.930424
19.957439
19.984603
20.011917
20.039383
20.067004
20.094782
20.122719
20.150819
20.179083
20.207514
20.236115
20.264889
20.293838
20.322965
20.352273
20.381764
20.411442
20.441309
20.471367
20.501619
20.532068
20.562714
20.593562
20.624612
20.655867
20.687327
20.718993
20.750867
20.782949
20.815239
20.847737
20.880442
20.913351
20.946463
20.979776
21.013285
21.046986
21.080875
21.114944
21.149186
21.183593
21.218154
21.252859
21.287694
21.322645
21.357695
21.392826
21.428016
21.463242
21.498479
21.533697
21.568863
21.603941
21.638891
21.673667
21.708218
21.742489
21.776416
21.809928
21.842945
21.875376
21.907121
21.938063
21.968072
21.996998
22.024672
22.050898
22.075457
22.098103
22.118561
22.136537
22.151732
22.163852
22.172642
22.177887
22.179489
22.177376
18.604161
18.599275
18.595991
18.594271
18.594054
18.595265
18.597831
18.601677
18.606732
18.612926
18.620196
18.628479
18.637715
18.647851
18.658833
18.670612
18.683141
18.696375
18.710273
18.724796
18.739906
18.755569
18.771753
18.788428
18.805565
18.823138
18.841122
18.859494
18.878234
18.897321
18.916736
18.936463
18.956487
18.976791
18.997362
19.018189
19.039258
19.060560
19.082084
19.103821
19.125763
19.147901
19.170230
19.192741
19.215430
19.238290
19.261317
19.284506
19.307852
19.331353
19.355006
19.378806
19.402752
19.426841
19.451071
19.475440
19.499948
19.524593
19.549374
19.574290
19.599342
19.624528
19.649849
19.675304
19.700895
19.726622
19.752486
19.778487
19.804627
19.830906
19.857326
19.883889
19.910595
19.937448
19.964448
19.991598
20.018900
20.046355
20.073967
20.101737
20.129668
20.157763
20.186023
20.214453
20.243053
20.271828
20.300779
20.329910
20.359223
20.388721
20.418406
20.448282
20.478351
20.508615
20.539076
20.569738
20.600601
20.631669
20.662941
20.694421
20.726108
20.758005
20.790110
20.822425
20.854949
20.887680
20.920617
20.953758
20.987100
21.020640
21.054373
21.088294
21.122395
21.156670
21.191110
21.225705
21.260443
21.295311
21.330294
21.365375
21.400536
21.435756
21.471010
21.506273
21.541514
21.576701
21.611797
21.646761
21.681547
21.716105
21.750378
21.784301
21.817803
21.850804
21.883214
21.914931
21.945839
21.975808
22.004687
22.032307
22.058474
22.082970
22.105548
22.125936
22.143842
22.158964
22.171017
22.179733
22.184937
22.186508
22.184347
18.619666
18.614730
18.611389
18.609598
18.609295
18.610405
18.612853
18.616566
18.621472
18.627506
18.634603
18.642704
18.651751
18.661691
18.672473
18.684048
18.696372
18.709400
18.723092
18.737410
18.752318
18.767783
18.783771
18.800254
18.817204
18.834594
18.852401
18.870601
18.889173
18.908097
18.927356
18.946931
18.966808
18.986970
19.007405
19.028100
19.049043
19.070222
19.091629
19.113254
19.135087
19.157122
19.179350
19.201765
19.224361
19.247133
19.270075
19.293183
19.316452
19.339878
19.363459
19.387191
19.411071
19.435097
19.459267
19.483580
19.508033
19.532626
19.557357
19.582226
19.607233
19.632376
19.657656
19.683074
19.708628
19.734321
19.760152
19.786123
19.812233
19.838486
19.864881
19.891420
19.918105
19.944938
19.971920
19.999053
20.026339
20.053781
20.081380
20.109140
20.137062
20.165149
20.193403
20.221827
20.250424
20.279197
20.308148
20.337280
20.366595
20.396096
20.425786
20.455668
20.485745
20.516018
20.546490
20.577163
20.608039
20.639120
20.670408
20.701904
20.733609
20.765525
20.797650
20.829986
20.862532
20.895286
20.928247
20.961414
20.994782
21.028349
21.062109
21.096057
21.130187
21.164491
21.198960
21.233583
21.268350
21.303246
21.338256
21.373365
21.408552
21.443796
21.479073
21.514357
21.549617
21.584820
21.619929
21.654903
21.689696
21.724256
21.758526
21.792442
21.825932
21.858915
21.891302
21.922990
21.953863
21.983790
22.012622
22.040190
22.066302
22.090737
22.113253
22.133576
22.151416
22.166473
22.178460
22.187123
22.192292
22.193808
22.191600
18.635752
18.630775
18.627384
18.625531
18.625149
18.626164
18.628501
18.632086
18.636850
18.642729
18.649658
18.657582
18.666443
18.676190
18.686774
18.698147
18.710266
18.723089
18.736576
18.750689
18.765394
18.780657
18.796448
18.812737
18.829496
18.846701
18.864326
18.882349
18.900749
18.919507
18.938604
18.958023
18.977748
18.997764
19.018058
19.038616
19.059427
19.080480
19.101764
19.123271
19.144991
19.166916
19.189039
19.211354
19.233853
19.256531
19.279384
19.302405
19.325592
19.348939
19.372444
19.396102
19.419913
19.443872
19.467979
19.492230
19.516625
19.541161
19.565839
19.590657
19.615615
19.640712
19.665948
19.691323
19.716838
19.742493
19.768288
19.794224
19.820303
19.846525
19.872892
19.899405
19.926065
19.952875
19.979835
20.006948
20.034216
20.061642
20.089226
20.116972
20.144882
20.172958
20.201203
20.229620
20.258211
20.286979
20.315926
20.345055
20.374370
20.403872
20.433564
20.463450
20.493531
20.523809
20.554288
20.584970
20.615855
20.646948
20.678248
20.709758
20.741477
20.773408
20.805550
20.837904
20.870468
20.903242
20.936224
20.969412
21.002803
21.036392
21.070175
21.104148
21.138302
21.172630
21.207124
21.241771
21.276562
21.311482
21.346516
21.381647
21.416856
21.452120
21.487416
21.522716
21.557990
21.593205
21.628324
21.663304
21.698099
21.732658
21.766922
21.800828
21.834303
21.867267
21.899629
21.931287
21.962124
21.992010
22.020797
22.048315
22.074373
22.098752
22.121208
22.141471
22.159251
22.174248
22.186175
22.194794
22.199903
22.201353
22.199105
18.652378
18.647370
18.643936
18.642027
18.641573
18.642499
18.644730
18.648194
18.652822
18.658550
18.665317
18.673068
18.681747
18.691305
18.701694
18.712869
18.724786
18.737404
18.750686
18.764595
18.779096
18.794158
18.809750
18.825843
18.842411
18.859427
18.876868
18.894711
18.912936
18.931524
18.950455
18.969714
18.989283
19.009148
19.029296
19.049713
19.070388
19.091309
19.112467
19.133851
19.155453
19.177264
19.199278
19.221487
19.243884
19.266465
19.289223
19.312154
19.335254
19.358518
19.381942
19.405524
19.429260
19.453149
19.477187
19.501373
19.525705
19.550181
19.574802
19.599565
19.624471
19.649517
19.674706
19.700035
19.725507
19.751120
19.776876
19.802776
19.828819
19.855008
19.881343
19.907826
19.934458
19.961242
19.988178
20.015268
20.042515
20.069920
20.097487
20.125216
20.153111
20.181174
20.209407
20.237813
20.266395
20.295155
20.324096
20.353220
20.382531
20.412031
20.441723
20.471608
20.501691
20.531972
20.562455
20.593142
20.624035
20.655135
20.686444
20.717964
20.749695
20.781638
20.813793
20.846162
20.878741
20.911532